# vtk DataFile Version 3.0
Scalar Field Data
ASCII
DATASET STRUCTURED_POINTS
DIMENSIONS 32 32 1
ORIGIN 0 0 0
SPACING 0.0322581 0.0322581 1
POINT_DATA 1024
SCALARS scalars double
LOOKUP_TABLE default
0
0
0
0
0
0
0
0
0
0
0
0
0
0
0
0
0
0
0
0
0
0
0
0
0
0
0
0
0
0
0
0
0
0.04066
0.0796553
0.11539
0.1464
0.171416
0.189415
0.199659
0.201729
0.19554
0.181346
0.159728
0.13157
0.0980254
0.0604679
0.0204348
-0.0204348
-0.0604679
-0.0980254
-0.13157
-0.159728
-0.181346
-0.19554
-0.201729
-0.199659
-0.189415
-0.171416
-0.1464
-0.11539
-0.0796553
-0.04066
0
0
0.0796553
0.15605
0.226055
0.286806
0.335815
0.371076
0.391144
0.3952
0.383075
0.355268
0.312916
0.257753
0.192038
0.11846
0.0400331
-0.0400331
-0.11846
-0.192038
-0.257753
-0.312916
-0.355268
-0.383075
-0.3952
-0.391144
-0.371076
-0.335815
-0.286806
-0.226055
-0.15605
-0.0796553
0
0
0.11539
0.226055
0.327466
0.41547
0.486465
0.537544
0.566616
0.57249
0.554927
0.514645
0.453293
0.373384
0.278188
0.171603
0.0579923
-0.0579923
-0.171603
-0.278188
-0.373384
-0.453293
-0.514645
-0.554927
-0.57249
-0.566616
-0.537544
-0.486465
-0.41547
-0.327466
-0.226055
-0.11539
0
0
0.1464
0.286806
0.41547
0.527125
0.617199
0.682005
0.71889
0.726343
0.70406
0.652953
0.575113
0.473728
0.352949
0.21772
0.0735774
-0.0735774
-0.21772
-0.352949
-0.473728
-0.575113
-0.652953
-0.70406
-0.726343
-0.71889
-0.682005
-0.617199
-0.527125
-0.41547
-0.286806
-0.1464
0
0
0.171416
0.335815
0.486465
0.617199
0.722665
0.798546
0.841733
0.85046
0.824369
0.764528
0.673387
0.554678
0.41326
0.254924
0.0861502
-0.0861502
-0.254924
-0.41326
-0.554678
-0.673387
-0.764528
-0.824369
-0.85046
-0.841733
-0.798546
-0.722665
-0.617199
-0.486465
-0.335815
-0.171416
0
0
0.189415
0.371076
0.537544
0.682005
0.798546
0.882393
0.930115
0.939758
0.910928
0.844804
0.744093
0.612919
0.456653
0.281691
0.095196
-0.095196
-0.281691
-0.456653
-0.612919
-0.744093
-0.844804
-0.910928
-0.939758
-0.930115
-0.882393
-0.798546
-0.682005
-0.537544
-0.371076
-0.189415
0
0
0.199659
0.391144
0.566616
0.71889
0.841733
0.930115
0.980418
0.990583
0.960193
0.890493
0.784336
0.646068
0.48135
0.296925
0.100344
-0.100344
-0.296925
-0.48135
-0.646068
-0.784336
-0.890493
-0.960193
-0.990583
-0.980418
-0.930115
-0.841733
-0.71889
-0.566616
-0.391144
-0.199659
0
0
0.201729
0.3952
0.57249
0.726343
0.85046
0.939758
0.990583
1.00085
0.970148
0.899725
0.792468
0.652766
0.48634
0.300004
0.101385
-0.101385
-0.300004
-0.48634
-0.652766
-0.792468
-0.899725
-0.970148
-1.00085
-0.990583
-0.939758
-0.85046
-0.726343
-0.57249
-0.3952
-0.201729
0
0
0.19554
0.383075
0.554927
0.70406
0.824369
0.910928
0.960193
0.970148
0.940385
0.872123
0.768156
0.63274
0.47142
0.2908
0.0982744
-0.0982744
-0.2908
-0.47142
-0.63274
-0.768156
-0.872123
-0.940385
-0.970148
-0.960193
-0.910928
-0.824369
-0.70406
-0.554927
-0.383075
-0.19554
0
0
0.181346
0.355268
0.514645
0.652953
0.764528
0.844804
0.890493
0.899725
0.872123
0.808816
0.712395
0.58681
0.4372
0.269691
0.0911407
-0.0911407
-0.269691
-0.4372
-0.58681
-0.712395
-0.808816
-0.872123
-0.899725
-0.890493
-0.844804
-0.764528
-0.652953
-0.514645
-0.355268
-0.181346
0
0
0.159728
0.312916
0.453293
0.575113
0.673387
0.744093
0.784336
0.792468
0.768156
0.712395
0.627469
0.516855
0.38508
0.23754
0.0802756
-0.0802756
-0.23754
-0.38508
-0.516855
-0.627469
-0.712395
-0.768156
-0.792468
-0.784336
-0.744093
-0.673387
-0.575113
-0.453293
-0.312916
-0.159728
0
0
0.13157
0.257753
0.373384
0.473728
0.554678
0.612919
0.646068
0.652766
0.63274
0.58681
0.516855
0.42574
0.317196
0.195665
0.0661241
-0.0661241
-0.195665
-0.317196
-0.42574
-0.516855
-0.58681
-0.63274
-0.652766
-0.646068
-0.612919
-0.554678
-0.473728
-0.373384
-0.257753
-0.13157
0
0
0.0980254
0.192038
0.278188
0.352949
0.41326
0.456653
0.48135
0.48634
0.47142
0.4372
0.38508
0.317196
0.236325
0.145779
0.0492655
-0.0492655
-0.145779
-0.236325
-0.317196
-0.38508
-0.4372
-0.47142
-0.48634
-0.48135
-0.456653
-0.41326
-0.352949
-0.278188
-0.192038
-0.0980254
0
0
0.0604679
0.11846
0.171603
0.21772
0.254924
0.281691
0.296925
0.300004
0.2908
0.269691
0.23754
0.195665
0.145779
0.0899254
0.0303899
-0.0303899
-0.0899254
-0.145779
-0.195665
-0.23754
-0.269691
-0.2908
-0.300004
-0.296925
-0.281691
-0.254924
-0.21772
-0.171603
-0.11846
-0.0604679
0
0
0.0204348
0.0400331
0.0579923
0.0735774
0.0861502
0.095196
0.100344
0.101385
0.0982744
0.0911407
0.0802756
0.0661241
0.0492655
0.0303899
0.0102701
-0.0102701
-0.0303899
-0.0492655
-0.0661241
-0.0802756
-0.0911407
-0.0982744
-0.101385
-0.100344
-0.095196
-0.0861502
-0.0735774
-0.0579923
-0.0400331
-0.0204348
0
0
-0.0204348
-0.0400331
-0.0579923
-0.0735774
-0.0861502
-0.095196
-0.100344
-0.101385
-0.0982744
-0.0911407
-0.0802756
-0.0661241
-0.0492655
-0.0303899
-0.0102701
0.0102701
0.0303899
0.0492655
0.0661241
0.0802756
0.0911407
0.0982744
0.101385
0.100344
0.095196
0.0861502
0.0735774
0.0579923
0.0400331
0.0204348
0
0
-0.0604679
-0.11846
-0.171603
-0.21772
-0.254924
-0.281691
-0.296925
-0.300004
-0.2908
-0.269691
-0.23754
-0.195665
-0.145779
-0.0899254
-0.0303899
0.0303899
0.0899254
0.145779
0.195665
0.23754
0.269691
0.2908
0.300004
0.296925
0.281691
0.254924
0.21772
0.171603
0.11846
0.0604679
0
0
-0.0980254
-0.192038
-0.278188
-0.352949
-0.41326
-0.456653
-0.48135
-0.48634
-0.47142
-0.4372
-0.38508
-0.317196
-0.236325
-0.145779
-0.0492655
0.0492655
0.145779
0.236325
0.317196
0.38508
0.4372
0.47142
0.48634
0.48135
0.456653
0.41326
0.352949
0.278188
0.192038
0.0980254
0
0
-0.13157
-0.257753
-0.373384
-0.473728
-0.554678
-0.612919
-0.646068
-0.652766
-0.63274
-0.58681
-0.516855
-0.42574
-0.317196
-0.195665
-0.0661241
0.0661241
0.195665
0.317196
0.42574
0.516855
0.58681
0.63274
0.652766
0.646068
0.612919
0.554678
0.473728
0.373384
0.257753
0.13157
0
0
-0.159728
-0.312916
-0.453293
-0.575113
-0.673387
-0.744093
-0.784336
-0.792468
-0.768156
-0.712395
-0.627469
-0.516855
-0.38508
-0.23754
-0.0802756
0.0802756
0.23754
0.38508
0.516855
0.627469
0.712395
0.768156
0.792468
0.784336
0.744093
0.673387
0.575113
0.453293
0.312916
0.159728
0
0
-0.181346
-0.355268
-0.514645
-0.652953
-0.764528
-0.844804
-0.890493
-0.899725
-0.872123
-0.808816
-0.712395
-0.58681
-0.4372
-0.269691
-0.0911407
0.0911407
0.269691
0.4372
0.58681
0.712395
0.808816
0.872123
0.899725
0.890493
0.844804
0.764528
0.652953
0.514645
0.355268
0.181346
0
0
-0.19554
-0.383075
-0.554927
-0.70406
-0.824369
-0.910928
-0.960193
-0.970148
-0.940385
-0.872123
-0.768156
-0.63274
-0.47142
-0.2908
-0.0982744
0.0982744
0.2908
0.47142
0.63274
0.768156
0.872123
0.940385
0.970148
0.960193
0.910928
0.824369
0.70406
0.554927
0.383075
0.19554
0
0
-0.201729
-0.3952
-0.57249
-0.726343
-0.85046
-0.939758
-0.990583
-1.00085
-0.970148
-0.899725
-0.792468
-0.652766
-0.48634
-0.300004
-0.101385
0.101385
0.300004
0.48634
0.652766
0.792468
0.899725
0.970148
1.00085
0.990583
0.939758
0.85046
0.726343
0.57249
0.3952
0.201729
0
0
-0.199659
-0.391144
-0.566616
-0.71889
-0.841733
-0.930115
-0.980418
-0.990583
-0.960193
-0.890493
-0.784336
-0.646068
-0.48135
-0.296925
-0.100344
0.100344
0.296925
0.48135
0.646068
0.784336
0.890493
0.960193
0.990583
0.980418
0.930115
0.841733
0.71889
0.566616
0.391144
0.199659
0
0
-0.189415
-0.371076
-0.537544
-0.682005
-0.798546
-0.882393
-0.930115
-0.939758
-0.910928
-0.844804
-0.744093
-0.612919
-0.456653
-0.281691
-0.095196
0.095196
0.281691
0.456653
0.612919
0.744093
0.844804
0.910928
0.939758
0.930115
0.882393
0.798546
0.682005
0.537544
0.371076
0.189415
0
0
-0.171416
-0.335815
-0.486465
-0.617199
-0.722665
-0.798546
-0.841733
-0.85046
-0.824369
-0.764528
-0.673387
-0.554678
-0.41326
-0.254924
-0.0861502
0.0861502
0.254924
0.41326
0.554678
0.673387
0.764528
0.824369
0.85046
0.841733
0.798546
0.722665
0.617199
0.486465
0.335815
0.171416
0
0
-0.1464
-0.286806
-0.41547
-0.527125
-0.617199
-0.682005
-0.71889
-0.726343
-0.70406
-0.652953
-0.575113
-0.473728
-0.352949
-0.21772
-0.0735774
0.0735774
0.21772
0.352949
0.473728
0.575113
0.652953
0.70406
0.726343
0.71889
0.682005
0.617199
0.527125
0.41547
0.286806
0.1464
0
0
-0.11539
-0.226055
-0.327466
-0.41547
-0.486465
-0.537544
-0.566616
-0.57249
-0.554927
-0.514645
-0.453293
-0.373384
-0.278188
-0.171603
-0.0579923
0.0579923
0.171603
0.278188
0.373384
0.453293
0.514645
0.554927
0.57249
0.566616
0.537544
0.486465
0.41547
0.327466
0.226055
0.11539
0
0
-0.0796553
-0.15605
-0.226055
-0.286806
-0.335815
-0.371076
-0.391144
-0.3952
-0.383075
-0.355268
-0.312916
-0.257753
-0.192038
-0.11846
-0.0400331
0.0400331
0.11846
0.192038
0.257753
0.312916
0.355268
0.383075
0.3952
0.391144
0.371076
0.335815
0.286806
0.226055
0.15605
0.0796553
0
0
-0.04066
-0.0796553
-0.11539
-0.1464
-0.171416
-0.189415
-0.199659
-0.201729
-0.19554
-0.181346
-0.159728
-0.13157
-0.0980254
-0.0604679
-0.0204348
0.0204348
0.0604679
0.0980254
0.13157
0.159728
0.181346
0.19554
0.201729
0.199659
0.189415
0.171416
0.1464
0.11539
0.0796553
0.04066
0
0
0
0
0
0
0
0
0
0
0
0
0
0
0
0
0
0
0
0
0
0
0
0
0
0
0
0
0
0
0
0
0
