# vtk DataFile Version 3.0
Scalar Field Data
ASCII
DATASET STRUCTURED_POINTS
DIMENSIONS 256 256 1
ORIGIN 0 0 0
SPACING 0.00392157 0.00392157 1
POINT_DATA 65536
SCALARS scalars double
LOOKUP_TABLE default
0
0
0
0
0
0
0
0
0
0
0
0
0
0
0
0
0
0
0
0
0
0
0
0
0
0
0
0
0
0
0
0
0
0
0
0
0
0
0
0
0
0
0
0
0
0
0
0
0
0
0
0
0
0
0
0
0
0
0
0
0
0
0
0
0
0
0
0
0
0
0
0
0
0
0
0
0
0
0
0
0
0
0
0
0
0
0
0
0
0
0
0
0
0
0
0
0
0
0
0
0
0
0
0
0
0
0
0
0
0
0
0
0
0
0
0
0
0
0
0
0
0
0
0
0
0
0
0
0
0
0
0
0
0
0
0
0
0
0
0
0
0
0
0
0
0
0
0
0
0
0
0
0
0
0
0
0
0
0
0
0
0
0
0
0
0
0
0
0
0
0
0
0
0
0
0
0
0
0
0
0
0
0
0
0
0
0
0
0
0
0
0
0
0
0
0
0
0
0
0
0
0
0
0
0
0
0
0
0
0
0
0
0
0
0
0
0
0
0
0
0
0
0
0
0
0
0
0
0
0
0
0
0
0
0
0
0
0
0
0
0
0
0
0
0
0
0
0
0
0
0
0
0
0
0
0
0
0.000607019
0.00121367
0.00181958
0.00242439
0.00302773
0.00362923
0.00422852
0.00482525
0.00541905
0.00600956
0.00659642
0.00717928
0.00775778
0.00833156
0.00890029
0.00946362
0.0100212
0.0105727
0.0111178
0.0116561
0.0121874
0.0127112
0.0132274
0.0137355
0.0142352
0.0147264
0.0152085
0.0156815
0.0161449
0.0165986
0.0170421
0.0174753
0.0178979
0.0183096
0.0187103
0.0190995
0.0194772
0.019843
0.0201968
0.0205383
0.0208674
0.0211838
0.0214873
0.0217778
0.0220551
0.022319
0.0225693
0.0228059
0.0230287
0.0232375
0.0234322
0.0236127
0.0237788
0.0239305
0.0240676
0.0241902
0.0242981
0.0243912
0.0244695
0.024533
0.0245815
0.0246152
0.0246339
0.0246376
0.0246264
0.0246002
0.0245591
0.0245031
0.0244322
0.0243465
0.024246
0.0241308
0.0240009
0.0238564
0.0236975
0.0235242
0.0233366
0.0231349
0.022919
0.0226893
0.0224458
0.0221887
0.0219181
0.0216342
0.0213372
0.0210272
0.0207044
0.0203691
0.0200214
0.0196616
0.0192898
0.0189063
0.0185114
0.0181052
0.017688
0.01726
0.0168216
0.016373
0.0159144
0.0154462
0.0149686
0.0144819
0.0139864
0.0134824
0.0129703
0.0124502
0.0119226
0.0113878
0.0108461
0.0102977
0.00974315
0.00918265
0.00861658
0.00804528
0.00746909
0.00688837
0.00630347
0.00571474
0.00512254
0.00452723
0.00392917
0.00332873
0.00272627
0.00212215
0.00151674
0.000910413
0.000303533
-0.000303533
-0.000910413
-0.00151674
-0.00212215
-0.00272627
-0.00332873
-0.00392917
-0.00452723
-0.00512254
-0.00571474
-0.00630347
-0.00688837
-0.00746909
-0.00804528
-0.00861658
-0.00918265
-0.00974315
-0.0102977
-0.0108461
-0.0113878
-0.0119226
-0.0124502
-0.0129703
-0.0134824
-0.0139864
-0.0144819
-0.0149686
-0.0154462
-0.0159144
-0.016373
-0.0168216
-0.01726
-0.017688
-0.0181052
-0.0185114
-0.0189063
-0.0192898
-0.0196616
-0.0200214
-0.0203691
-0.0207044
-0.0210272
-0.0213372
-0.0216342
-0.0219181
-0.0221887
-0.0224458
-0.0226893
-0.022919
-0.0231349
-0.0233366
-0.0235242
-0.0236975
-0.0238564
-0.0240009
-0.0241308
-0.024246
-0.0243465
-0.0244322
-0.0245031
-0.0245591
-0.0246002
-0.0246264
-0.0246376
-0.0246339
-0.0246152
-0.0245815
-0.024533
-0.0244695
-0.0243912
-0.0242981
-0.0241902
-0.0240676
-0.0239305
-0.0237788
-0.0236127
-0.0234322
-0.0232375
-0.0230287
-0.0228059
-0.0225693
-0.022319
-0.0220551
-0.0217778
-0.0214873
-0.0211838
-0.0208674
-0.0205383
-0.0201968
-0.019843
-0.0194772
-0.0190995
-0.0187103
-0.0183096
-0.0178979
-0.0174753
-0.0170421
-0.0165986
-0.0161449
-0.0156815
-0.0152085
-0.0147264
-0.0142352
-0.0137355
-0.0132274
-0.0127112
-0.0121874
-0.0116561
-0.0111178
-0.0105727
-0.0100212
-0.00946362
-0.00890029
-0.00833156
-0.00775778
-0.00717928
-0.00659642
-0.00600956
-0.00541905
-0.00482525
-0.00422852
-0.00362923
-0.00302773
-0.00242439
-0.00181958
-0.00121367
-0.000607019
0
0
0.00121367
0.0024266
0.00363806
0.00484731
0.00605362
0.00725625
0.00845448
0.00964758
0.0108348
0.0120155
0.0131888
0.0143542
0.0155108
0.0166581
0.0177952
0.0189215
0.0200363
0.021139
0.0222288
0.0233051
0.0243673
0.0254147
0.0264467
0.0274626
0.0284618
0.0294438
0.0304078
0.0313535
0.03228
0.033187
0.0340739
0.03494
0.035785
0.0366082
0.0374092
0.0381874
0.0389425
0.039674
0.0403814
0.0410642
0.0417221
0.0423547
0.0429616
0.0435424
0.0440968
0.0446244
0.0451249
0.045598
0.0460434
0.0464609
0.0468501
0.047211
0.0475431
0.0478464
0.0481207
0.0483657
0.0485814
0.0487676
0.0489241
0.049051
0.0491481
0.0492154
0.0492527
0.0492602
0.0492378
0.0491855
0.0491033
0.0489913
0.0488496
0.0486782
0.0484772
0.0482469
0.0479872
0.0476984
0.0473806
0.0470341
0.0466591
0.0462557
0.0458242
0.0453649
0.044878
0.0443639
0.0438229
0.0432553
0.0426614
0.0420416
0.0413963
0.0407259
0.0400307
0.0393113
0.0385679
0.0378012
0.0370115
0.0361993
0.0353652
0.0345096
0.033633
0.032736
0.0318192
0.030883
0.0299281
0.028955
0.0279643
0.0269567
0.0259327
0.0248929
0.023838
0.0227687
0.0216855
0.0205892
0.0194804
0.0183597
0.0172279
0.0160857
0.0149337
0.0137726
0.0126031
0.011426
0.010242
0.00905171
0.00785596
0.00665544
0.00545088
0.00424301
0.00303256
0.00182027
0.000606881
-0.000606881
-0.00182027
-0.00303256
-0.00424301
-0.00545088
-0.00665544
-0.00785596
-0.00905171
-0.010242
-0.011426
-0.0126031
-0.0137726
-0.0149337
-0.0160857
-0.0172279
-0.0183597
-0.0194804
-0.0205892
-0.0216855
-0.0227687
-0.023838
-0.0248929
-0.0259327
-0.0269567
-0.0279643
-0.028955
-0.0299281
-0.030883
-0.0318192
-0.032736
-0.033633
-0.0345096
-0.0353652
-0.0361993
-0.0370115
-0.0378012
-0.0385679
-0.0393113
-0.0400307
-0.0407259
-0.0413963
-0.0420416
-0.0426614
-0.0432553
-0.0438229
-0.0443639
-0.044878
-0.0453649
-0.0458242
-0.0462557
-0.0466591
-0.0470341
-0.0473806
-0.0476984
-0.0479872
-0.0482469
-0.0484772
-0.0486782
-0.0488496
-0.0489913
-0.0491033
-0.0491855
-0.0492378
-0.0492602
-0.0492527
-0.0492154
-0.0491481
-0.049051
-0.0489241
-0.0487676
-0.0485814
-0.0483657
-0.0481207
-0.0478464
-0.0475431
-0.047211
-0.0468501
-0.0464609
-0.0460434
-0.045598
-0.0451249
-0.0446244
-0.0440968
-0.0435424
-0.0429616
-0.0423547
-0.0417221
-0.0410642
-0.0403814
-0.039674
-0.0389425
-0.0381874
-0.0374092
-0.0366082
-0.035785
-0.03494
-0.0340739
-0.033187
-0.03228
-0.0313535
-0.0304078
-0.0294438
-0.0284618
-0.0274626
-0.0264467
-0.0254147
-0.0243673
-0.0233051
-0.0222288
-0.021139
-0.0200363
-0.0189215
-0.0177952
-0.0166581
-0.0155108
-0.0143542
-0.0131888
-0.0120155
-0.0108348
-0.00964758
-0.00845448
-0.00725625
-0.00605362
-0.00484731
-0.00363806
-0.0024266
-0.00121367
0
0
0.00181958
0.00363806
0.00545433
0.00726729
0.00907584
0.0108789
0.0126753
0.014464
0.016244
0.0180141
0.0197732
0.0215204
0.0232545
0.0249745
0.0266793
0.0283679
0.0300393
0.0316924
0.0333263
0.03494
0.0365325
0.0381028
0.0396499
0.041173
0.0426711
0.0441433
0.0455887
0.0470064
0.0483956
0.0497554
0.0510849
0.0523835
0.0536503
0.0548845
0.0560854
0.0572522
0.0583843
0.0594809
0.0605414
0.0615652
0.0625516
0.0635
0.0644098
0.0652806
0.0661117
0.0669027
0.0676531
0.0683624
0.0690302
0.0696561
0.0702397
0.0707806
0.0712786
0.0717333
0.0721445
0.0725119
0.0728352
0.0731144
0.0733491
0.0735393
0.0736849
0.0737857
0.0738417
0.073853
0.0738193
0.0737409
0.0736177
0.0734498
0.0732373
0.0729803
0.0726791
0.0723337
0.0719444
0.0715114
0.071035
0.0705155
0.0699532
0.0693484
0.0687015
0.0680129
0.067283
0.0665123
0.0657011
0.0648501
0.0639597
0.0630305
0.0620631
0.0610579
0.0600157
0.058937
0.0578226
0.0566731
0.0554891
0.0542715
0.0530209
0.0517382
0.050424
0.0490792
0.0477046
0.0463011
0.0448694
0.0434105
0.0419253
0.0404145
0.0388793
0.0373205
0.035739
0.0341358
0.0325119
0.0308682
0.0292058
0.0275257
0.0258288
0.0241163
0.0223891
0.0206484
0.0188951
0.0171303
0.0153552
0.0135707
0.011778
0.00997811
0.00817218
0.00636129
0.00454654
0.00272903
0.000909861
-0.000909861
-0.00272903
-0.00454654
-0.00636129
-0.00817218
-0.00997811
-0.011778
-0.0135707
-0.0153552
-0.0171303
-0.0188951
-0.0206484
-0.0223891
-0.0241163
-0.0258288
-0.0275257
-0.0292058
-0.0308682
-0.0325119
-0.0341358
-0.035739
-0.0373205
-0.0388793
-0.0404145
-0.0419253
-0.0434105
-0.0448694
-0.0463011
-0.0477046
-0.0490792
-0.050424
-0.0517382
-0.0530209
-0.0542715
-0.0554891
-0.0566731
-0.0578226
-0.058937
-0.0600157
-0.0610579
-0.0620631
-0.0630305
-0.0639597
-0.0648501
-0.0657011
-0.0665123
-0.067283
-0.0680129
-0.0687015
-0.0693484
-0.0699532
-0.0705155
-0.071035
-0.0715114
-0.0719444
-0.0723337
-0.0726791
-0.0729803
-0.0732373
-0.0734498
-0.0736177
-0.0737409
-0.0738193
-0.073853
-0.0738417
-0.0737857
-0.0736849
-0.0735393
-0.0733491
-0.0731144
-0.0728352
-0.0725119
-0.0721445
-0.0717333
-0.0712786
-0.0707806
-0.0702397
-0.0696561
-0.0690302
-0.0683624
-0.0676531
-0.0669027
-0.0661117
-0.0652806
-0.0644098
-0.0635
-0.0625516
-0.0615652
-0.0605414
-0.0594809
-0.0583843
-0.0572522
-0.0560854
-0.0548845
-0.0536503
-0.0523835
-0.0510849
-0.0497554
-0.0483956
-0.0470064
-0.0455887
-0.0441433
-0.0426711
-0.041173
-0.0396499
-0.0381028
-0.0365325
-0.03494
-0.0333263
-0.0316924
-0.0300393
-0.0283679
-0.0266793
-0.0249745
-0.0232545
-0.0215204
-0.0197732
-0.0180141
-0.016244
-0.014464
-0.0126753
-0.0108789
-0.00907584
-0.00726729
-0.00545433
-0.00363806
-0.00181958
0
0
0.00242439
0.00484731
0.00726729
0.00968285
0.0120925
0.0144949
0.0168884
0.0192717
0.0216433
0.0240018
0.0263457
0.0286735
0.030984
0.0332757
0.0355472
0.037797
0.040024
0.0422266
0.0444036
0.0465537
0.0486755
0.0507677
0.0528291
0.0548585
0.0568545
0.058816
0.0607419
0.0626308
0.0644817
0.0662935
0.068065
0.0697952
0.071483
0.0731275
0.0747275
0.0762822
0.0777905
0.0792517
0.0806647
0.0820287
0.083343
0.0846066
0.0858189
0.0869791
0.0880865
0.0891404
0.0901402
0.0910853
0.091975
0.092809
0.0935865
0.0943073
0.0949708
0.0955767
0.0961245
0.096614
0.0970448
0.0974167
0.0977295
0.0979829
0.0981769
0.0983112
0.0983859
0.0984008
0.098356
0.0982515
0.0980874
0.0978637
0.0975805
0.0972382
0.0968368
0.0963766
0.0958579
0.095281
0.0946463
0.0939541
0.0932048
0.092399
0.0915371
0.0906196
0.0896471
0.0886202
0.0875395
0.0864056
0.0852193
0.0839812
0.0826921
0.0813529
0.0799642
0.0785271
0.0770422
0.0755106
0.0739331
0.0723107
0.0706445
0.0689353
0.0671843
0.0653926
0.0635611
0.061691
0.0597835
0.0578397
0.0558607
0.0538479
0.0518024
0.0497254
0.0476182
0.0454821
0.0433184
0.0411284
0.0389135
0.0366749
0.034414
0.0321323
0.029831
0.0275117
0.0251756
0.0228243
0.0204591
0.0180815
0.0156929
0.0132947
0.0108885
0.00847572
0.00605776
0.00363613
0.00121229
-0.00121229
-0.00363613
-0.00605776
-0.00847572
-0.0108885
-0.0132947
-0.0156929
-0.0180815
-0.0204591
-0.0228243
-0.0251756
-0.0275117
-0.029831
-0.0321323
-0.034414
-0.0366749
-0.0389135
-0.0411284
-0.0433184
-0.0454821
-0.0476182
-0.0497254
-0.0518024
-0.0538479
-0.0558607
-0.0578397
-0.0597835
-0.061691
-0.0635611
-0.0653926
-0.0671843
-0.0689353
-0.0706445
-0.0723107
-0.0739331
-0.0755106
-0.0770422
-0.0785271
-0.0799642
-0.0813529
-0.0826921
-0.0839812
-0.0852193
-0.0864056
-0.0875395
-0.0886202
-0.0896471
-0.0906196
-0.0915371
-0.092399
-0.0932048
-0.0939541
-0.0946463
-0.095281
-0.0958579
-0.0963766
-0.0968368
-0.0972382
-0.0975805
-0.0978637
-0.0980874
-0.0982515
-0.098356
-0.0984008
-0.0983859
-0.0983112
-0.0981769
-0.0979829
-0.0977295
-0.0974167
-0.0970448
-0.096614
-0.0961245
-0.0955767
-0.0949708
-0.0943073
-0.0935865
-0.092809
-0.091975
-0.0910853
-0.0901402
-0.0891404
-0.0880865
-0.0869791
-0.0858189
-0.0846066
-0.083343
-0.0820287
-0.0806647
-0.0792517
-0.0777905
-0.0762822
-0.0747275
-0.0731275
-0.071483
-0.0697952
-0.068065
-0.0662935
-0.0644817
-0.0626308
-0.0607419
-0.058816
-0.0568545
-0.0548585
-0.0528291
-0.0507677
-0.0486755
-0.0465537
-0.0444036
-0.0422266
-0.040024
-0.037797
-0.0355472
-0.0332757
-0.030984
-0.0286735
-0.0263457
-0.0240018
-0.0216433
-0.0192717
-0.0168884
-0.0144949
-0.0120925
-0.00968285
-0.00726729
-0.00484731
-0.00242439
0
0
0.00302773
0.00605362
0.00907584
0.0120925
0.0151019
0.0181021
0.0210913
0.0240677
0.0270295
0.0299749
0.0329021
0.0358093
0.0386947
0.0415567
0.0443935
0.0472033
0.0499844
0.0527352
0.055454
0.0581391
0.0607889
0.0634018
0.0659763
0.0685106
0.0710034
0.0734531
0.0758581
0.0782172
0.0805287
0.0827914
0.0850037
0.0871645
0.0892724
0.0913261
0.0933243
0.0952659
0.0971496
0.0989743
0.100739
0.102443
0.104084
0.105662
0.107176
0.108625
0.110008
0.111324
0.112573
0.113753
0.114864
0.115906
0.116877
0.117777
0.118605
0.119362
0.120046
0.120657
0.121196
0.12166
0.122051
0.122367
0.122609
0.122777
0.12287
0.122889
0.122833
0.122703
0.122498
0.122218
0.121865
0.121437
0.120936
0.120361
0.119713
0.118993
0.1182
0.117336
0.1164
0.115394
0.114317
0.113171
0.111957
0.110674
0.109325
0.107909
0.106427
0.104881
0.103271
0.101598
0.0998642
0.0980694
0.096215
0.0943022
0.0923322
0.0903061
0.0882252
0.0860907
0.0839039
0.0816662
0.079379
0.0770435
0.0746613
0.0722337
0.0697623
0.0672485
0.064694
0.0621001
0.0594685
0.0568009
0.0540987
0.0513637
0.0485975
0.0458018
0.0429784
0.0401288
0.0372548
0.0343583
0.0314409
0.0285044
0.0255505
0.0225812
0.0195982
0.0166033
0.0135983
0.010585
0.0075653
0.00454102
0.00151398
-0.00151398
-0.00454102
-0.0075653
-0.010585
-0.0135983
-0.0166033
-0.0195982
-0.0225812
-0.0255505
-0.0285044
-0.0314409
-0.0343583
-0.0372548
-0.0401288
-0.0429784
-0.0458018
-0.0485975
-0.0513637
-0.0540987
-0.0568009
-0.0594685
-0.0621001
-0.064694
-0.0672485
-0.0697623
-0.0722337
-0.0746613
-0.0770435
-0.079379
-0.0816662
-0.0839039
-0.0860907
-0.0882252
-0.0903061
-0.0923322
-0.0943022
-0.096215
-0.0980694
-0.0998642
-0.101598
-0.103271
-0.104881
-0.106427
-0.107909
-0.109325
-0.110674
-0.111957
-0.113171
-0.114317
-0.115394
-0.1164
-0.117336
-0.1182
-0.118993
-0.119713
-0.120361
-0.120936
-0.121437
-0.121865
-0.122218
-0.122498
-0.122703
-0.122833
-0.122889
-0.12287
-0.122777
-0.122609
-0.122367
-0.122051
-0.12166
-0.121196
-0.120657
-0.120046
-0.119362
-0.118605
-0.117777
-0.116877
-0.115906
-0.114864
-0.113753
-0.112573
-0.111324
-0.110008
-0.108625
-0.107176
-0.105662
-0.104084
-0.102443
-0.100739
-0.0989743
-0.0971496
-0.0952659
-0.0933243
-0.0913261
-0.0892724
-0.0871645
-0.0850037
-0.0827914
-0.0805287
-0.0782172
-0.0758581
-0.0734531
-0.0710034
-0.0685106
-0.0659763
-0.0634018
-0.0607889
-0.0581391
-0.055454
-0.0527352
-0.0499844
-0.0472033
-0.0443935
-0.0415567
-0.0386947
-0.0358093
-0.0329021
-0.0299749
-0.0270295
-0.0240677
-0.0210913
-0.0181021
-0.0151019
-0.0120925
-0.00907584
-0.00605362
-0.00302773
0
0
0.00362923
0.00725625
0.0108789
0.0144949
0.0181021
0.0216983
0.0252814
0.0288491
0.0323993
0.0359298
0.0394385
0.0429233
0.046382
0.0498125
0.0532128
0.0565808
0.0599145
0.0632118
0.0664707
0.0696892
0.0728655
0.0759975
0.0790833
0.0821212
0.0851092
0.0880455
0.0909284
0.0937561
0.0965268
0.099239
0.101891
0.104481
0.107008
0.109469
0.111864
0.114192
0.11645
0.118637
0.120752
0.122794
0.124761
0.126653
0.128468
0.130205
0.131862
0.13344
0.134937
0.136351
0.137683
0.138932
0.140096
0.141175
0.142168
0.143075
0.143895
0.144628
0.145273
0.145829
0.146298
0.146677
0.146967
0.147168
0.14728
0.147303
0.147235
0.147079
0.146833
0.146498
0.146075
0.145562
0.144961
0.144272
0.143496
0.142632
0.141682
0.140646
0.139524
0.138318
0.137028
0.135654
0.134199
0.132661
0.131043
0.129346
0.12757
0.125717
0.123787
0.121782
0.119704
0.117552
0.115329
0.113037
0.110675
0.108247
0.105752
0.103194
0.100573
0.0978903
0.0951487
0.0923492
0.0894937
0.0865839
0.0836215
0.0806084
0.0775463
0.0744371
0.0712827
0.0680851
0.0648461
0.0615678
0.0582521
0.054901
0.0515166
0.0481009
0.044656
0.041184
0.037687
0.0341671
0.0306265
0.0270673
0.0234916
0.0199017
0.0162997
0.0126878
0.00906825
0.00544315
0.00181475
-0.00181475
-0.00544315
-0.00906825
-0.0126878
-0.0162997
-0.0199017
-0.0234916
-0.0270673
-0.0306265
-0.0341671
-0.037687
-0.041184
-0.044656
-0.0481009
-0.0515166
-0.054901
-0.0582521
-0.0615678
-0.0648461
-0.0680851
-0.0712827
-0.0744371
-0.0775463
-0.0806084
-0.0836215
-0.0865839
-0.0894937
-0.0923492
-0.0951487
-0.0978903
-0.100573
-0.103194
-0.105752
-0.108247
-0.110675
-0.113037
-0.115329
-0.117552
-0.119704
-0.121782
-0.123787
-0.125717
-0.12757
-0.129346
-0.131043
-0.132661
-0.134199
-0.135654
-0.137028
-0.138318
-0.139524
-0.140646
-0.141682
-0.142632
-0.143496
-0.144272
-0.144961
-0.145562
-0.146075
-0.146498
-0.146833
-0.147079
-0.147235
-0.147303
-0.14728
-0.147168
-0.146967
-0.146677
-0.146298
-0.145829
-0.145273
-0.144628
-0.143895
-0.143075
-0.142168
-0.141175
-0.140096
-0.138932
-0.137683
-0.136351
-0.134937
-0.13344
-0.131862
-0.130205
-0.128468
-0.126653
-0.124761
-0.122794
-0.120752
-0.118637
-0.11645
-0.114192
-0.111864
-0.109469
-0.107008
-0.104481
-0.101891
-0.099239
-0.0965268
-0.0937561
-0.0909284
-0.0880455
-0.0851092
-0.0821212
-0.0790833
-0.0759975
-0.0728655
-0.0696892
-0.0664707
-0.0632118
-0.0599145
-0.0565808
-0.0532128
-0.0498125
-0.046382
-0.0429233
-0.0394385
-0.0359298
-0.0323993
-0.0288491
-0.0252814
-0.0216983
-0.0181021
-0.0144949
-0.0108789
-0.00725625
-0.00362923
0
0
0.00422852
0.00845448
0.0126753
0.0168884
0.0210913
0.0252814
0.0294561
0.0336129
0.0377494
0.0418629
0.045951
0.0500112
0.054041
0.0580381
0.0619999
0.065924
0.0698082
0.0736499
0.077447
0.081197
0.0848977
0.0885469
0.0921424
0.0956819
0.0991633
0.102584
0.105943
0.109238
0.112466
0.115626
0.118716
0.121734
0.124678
0.127546
0.130337
0.133048
0.135679
0.138227
0.140692
0.143071
0.145363
0.147567
0.149682
0.151705
0.153637
0.155475
0.157219
0.158867
0.160419
0.161874
0.16323
0.164487
0.165644
0.166701
0.167656
0.16851
0.169262
0.16991
0.170456
0.170898
0.171236
0.17147
0.171601
0.171627
0.171549
0.171366
0.17108
0.17069
0.170196
0.169599
0.168899
0.168096
0.167191
0.166185
0.165078
0.163871
0.162564
0.161159
0.159655
0.158055
0.156359
0.154568
0.152683
0.150705
0.148636
0.146476
0.144228
0.141892
0.13947
0.136964
0.134374
0.131702
0.128951
0.126121
0.123215
0.120234
0.11718
0.114055
0.110861
0.107599
0.104272
0.100882
0.09743
0.0939193
0.0903515
0.0867289
0.0830537
0.079328
0.0755542
0.0717345
0.0678713
0.0639668
0.0600235
0.0560438
0.0520301
0.0479847
0.0439103
0.0398092
0.0356839
0.0315369
0.0273708
0.0231881
0.0189913
0.014783
0.0105657
0.00634198
0.00211442
-0.00211442
-0.00634198
-0.0105657
-0.014783
-0.0189913
-0.0231881
-0.0273708
-0.0315369
-0.0356839
-0.0398092
-0.0439103
-0.0479847
-0.0520301
-0.0560438
-0.0600235
-0.0639668
-0.0678713
-0.0717345
-0.0755542
-0.079328
-0.0830537
-0.0867289
-0.0903515
-0.0939193
-0.09743
-0.100882
-0.104272
-0.107599
-0.110861
-0.114055
-0.11718
-0.120234
-0.123215
-0.126121
-0.128951
-0.131702
-0.134374
-0.136964
-0.13947
-0.141892
-0.144228
-0.146476
-0.148636
-0.150705
-0.152683
-0.154568
-0.156359
-0.158055
-0.159655
-0.161159
-0.162564
-0.163871
-0.165078
-0.166185
-0.167191
-0.168096
-0.168899
-0.169599
-0.170196
-0.17069
-0.17108
-0.171366
-0.171549
-0.171627
-0.171601
-0.17147
-0.171236
-0.170898
-0.170456
-0.16991
-0.169262
-0.16851
-0.167656
-0.166701
-0.165644
-0.164487
-0.16323
-0.161874
-0.160419
-0.158867
-0.157219
-0.155475
-0.153637
-0.151705
-0.149682
-0.147567
-0.145363
-0.143071
-0.140692
-0.138227
-0.135679
-0.133048
-0.130337
-0.127546
-0.124678
-0.121734
-0.118716
-0.115626
-0.112466
-0.109238
-0.105943
-0.102584
-0.0991633
-0.0956819
-0.0921424
-0.0885469
-0.0848977
-0.081197
-0.077447
-0.0736499
-0.0698082
-0.065924
-0.0619999
-0.0580381
-0.054041
-0.0500112
-0.045951
-0.0418629
-0.0377494
-0.0336129
-0.0294561
-0.0252814
-0.0210913
-0.0168884
-0.0126753
-0.00845448
-0.00422852
0
0
0.00482525
0.00964758
0.014464
0.0192717
0.0240677
0.0288491
0.0336129
0.0383564
0.0430766
0.0477706
0.0524356
0.0570688
0.0616673
0.0662284
0.0707493
0.0752272
0.0796595
0.0840434
0.0883763
0.0926555
0.0968785
0.101043
0.105145
0.109184
0.113157
0.117061
0.120894
0.124654
0.128338
0.131944
0.135469
0.138913
0.142272
0.145545
0.14873
0.151824
0.154826
0.157734
0.160546
0.163261
0.165877
0.168392
0.170805
0.173114
0.175318
0.177416
0.179405
0.181286
0.183057
0.184717
0.186265
0.187699
0.18902
0.190226
0.191316
0.19229
0.193148
0.193888
0.19451
0.195015
0.195401
0.195668
0.195817
0.195847
0.195757
0.195549
0.195223
0.194777
0.194214
0.193533
0.192734
0.191818
0.190785
0.189637
0.188374
0.186996
0.185505
0.183901
0.182186
0.18036
0.178424
0.17638
0.174229
0.171972
0.169611
0.167147
0.164582
0.161916
0.159152
0.156292
0.153337
0.150288
0.147149
0.14392
0.140603
0.137202
0.133717
0.13015
0.126505
0.122783
0.118987
0.115118
0.111179
0.107173
0.103102
0.0989681
0.0947742
0.0905228
0.0862164
0.0818577
0.0774492
0.0729938
0.068494
0.0639527
0.0593725
0.0547563
0.0501069
0.045427
0.0407196
0.0359874
0.0312334
0.0264604
0.0216714
0.0168692
0.0120567
0.00723696
0.00241281
-0.00241281
-0.00723696
-0.0120567
-0.0168692
-0.0216714
-0.0264604
-0.0312334
-0.0359874
-0.0407196
-0.045427
-0.0501069
-0.0547563
-0.0593725
-0.0639527
-0.068494
-0.0729938
-0.0774492
-0.0818577
-0.0862164
-0.0905228
-0.0947742
-0.0989681
-0.103102
-0.107173
-0.111179
-0.115118
-0.118987
-0.122783
-0.126505
-0.13015
-0.133717
-0.137202
-0.140603
-0.14392
-0.147149
-0.150288
-0.153337
-0.156292
-0.159152
-0.161916
-0.164582
-0.167147
-0.169611
-0.171972
-0.174229
-0.17638
-0.178424
-0.18036
-0.182186
-0.183901
-0.185505
-0.186996
-0.188374
-0.189637
-0.190785
-0.191818
-0.192734
-0.193533
-0.194214
-0.194777
-0.195223
-0.195549
-0.195757
-0.195847
-0.195817
-0.195668
-0.195401
-0.195015
-0.19451
-0.193888
-0.193148
-0.19229
-0.191316
-0.190226
-0.18902
-0.187699
-0.186265
-0.184717
-0.183057
-0.181286
-0.179405
-0.177416
-0.175318
-0.173114
-0.170805
-0.168392
-0.165877
-0.163261
-0.160546
-0.157734
-0.154826
-0.151824
-0.14873
-0.145545
-0.142272
-0.138913
-0.135469
-0.131944
-0.128338
-0.124654
-0.120894
-0.117061
-0.113157
-0.109184
-0.105145
-0.101043
-0.0968785
-0.0926555
-0.0883763
-0.0840434
-0.0796595
-0.0752272
-0.0707493
-0.0662284
-0.0616673
-0.0570688
-0.0524356
-0.0477706
-0.0430766
-0.0383564
-0.0336129
-0.0288491
-0.0240677
-0.0192717
-0.014464
-0.00964758
-0.00482525
0
0
0.00541905
0.0108348
0.016244
0.0216433
0.0270295
0.0323993
0.0377494
0.0430766
0.0483776
0.0536493
0.0588884
0.0640917
0.0692561
0.0743785
0.0794558
0.0844848
0.0894625
0.0943859
0.0992519
0.104058
0.1088
0.113477
0.118085
0.122621
0.127082
0.131467
0.135771
0.139994
0.144131
0.148181
0.15214
0.156008
0.15978
0.163456
0.167032
0.170508
0.173879
0.177145
0.180303
0.183352
0.18629
0.189115
0.191824
0.194418
0.196893
0.199248
0.201483
0.203596
0.205585
0.207449
0.209187
0.210798
0.212281
0.213635
0.21486
0.215954
0.216917
0.217748
0.218447
0.219014
0.219447
0.219747
0.219914
0.219948
0.219847
0.219614
0.219247
0.218747
0.218114
0.217349
0.216452
0.215423
0.214264
0.212974
0.211555
0.210008
0.208333
0.206532
0.204606
0.202555
0.200381
0.198086
0.19567
0.193136
0.190484
0.187717
0.184835
0.181842
0.178738
0.175525
0.172206
0.168783
0.165257
0.16163
0.157906
0.154086
0.150172
0.146167
0.142073
0.137893
0.133629
0.129284
0.124861
0.120362
0.11579
0.111147
0.106437
0.101663
0.0968262
0.0919311
0.0869802
0.0819765
0.076923
0.0718228
0.066679
0.0614947
0.0562731
0.0510173
0.0457306
0.040416
0.035077
0.0297166
0.0243383
0.0189451
0.0135404
0.00812755
0.00270973
-0.00270973
-0.00812755
-0.0135404
-0.0189451
-0.0243383
-0.0297166
-0.035077
-0.040416
-0.0457306
-0.0510173
-0.0562731
-0.0614947
-0.066679
-0.0718228
-0.076923
-0.0819765
-0.0869802
-0.0919311
-0.0968262
-0.101663
-0.106437
-0.111147
-0.11579
-0.120362
-0.124861
-0.129284
-0.133629
-0.137893
-0.142073
-0.146167
-0.150172
-0.154086
-0.157906
-0.16163
-0.165257
-0.168783
-0.172206
-0.175525
-0.178738
-0.181842
-0.184835
-0.187717
-0.190484
-0.193136
-0.19567
-0.198086
-0.200381
-0.202555
-0.204606
-0.206532
-0.208333
-0.210008
-0.211555
-0.212974
-0.214264
-0.215423
-0.216452
-0.217349
-0.218114
-0.218747
-0.219247
-0.219614
-0.219847
-0.219948
-0.219914
-0.219747
-0.219447
-0.219014
-0.218447
-0.217748
-0.216917
-0.215954
-0.21486
-0.213635
-0.212281
-0.210798
-0.209187
-0.207449
-0.205585
-0.203596
-0.201483
-0.199248
-0.196893
-0.194418
-0.191824
-0.189115
-0.18629
-0.183352
-0.180303
-0.177145
-0.173879
-0.170508
-0.167032
-0.163456
-0.15978
-0.156008
-0.15214
-0.148181
-0.144131
-0.139994
-0.135771
-0.131467
-0.127082
-0.122621
-0.118085
-0.113477
-0.1088
-0.104058
-0.0992519
-0.0943859
-0.0894625
-0.0844848
-0.0794558
-0.0743785
-0.0692561
-0.0640917
-0.0588884
-0.0536493
-0.0483776
-0.0430766
-0.0377494
-0.0323993
-0.0270295
-0.0216433
-0.016244
-0.0108348
-0.00541905
0
0
0.00600956
0.0120155
0.0180141
0.0240018
0.0299749
0.0359298
0.0418629
0.0477706
0.0536493
0.0594954
0.0653054
0.0710757
0.0768029
0.0824835
0.088114
0.093691
0.0992111
0.104671
0.110067
0.115397
0.120656
0.125843
0.130952
0.135983
0.14093
0.145793
0.150566
0.155249
0.159837
0.164328
0.168719
0.173008
0.177192
0.181268
0.185234
0.189088
0.192826
0.196448
0.199951
0.203332
0.20659
0.209722
0.212727
0.215603
0.218348
0.22096
0.223439
0.225781
0.227987
0.230054
0.231981
0.233768
0.235413
0.236915
0.238273
0.239486
0.240554
0.241476
0.242251
0.242879
0.24336
0.243693
0.243878
0.243915
0.243804
0.243545
0.243138
0.242584
0.241882
0.241033
0.240038
0.238897
0.237612
0.236182
0.234608
0.232892
0.231035
0.229038
0.226901
0.224627
0.222216
0.219671
0.216992
0.214181
0.211241
0.208172
0.204977
0.201657
0.198215
0.194652
0.190972
0.187175
0.183265
0.179243
0.175113
0.170876
0.166536
0.162094
0.157555
0.152919
0.148191
0.143372
0.138467
0.133478
0.128407
0.123259
0.118036
0.112741
0.107377
0.101949
0.0964584
0.0909094
0.0853052
0.0796492
0.0739449
0.0681957
0.0624051
0.0565766
0.0507138
0.0448201
0.0388993
0.0329548
0.0269904
0.0210095
0.0150159
0.0090132
0.00300501
-0.00300501
-0.0090132
-0.0150159
-0.0210095
-0.0269904
-0.0329548
-0.0388993
-0.0448201
-0.0507138
-0.0565766
-0.0624051
-0.0681957
-0.0739449
-0.0796492
-0.0853052
-0.0909094
-0.0964584
-0.101949
-0.107377
-0.112741
-0.118036
-0.123259
-0.128407
-0.133478
-0.138467
-0.143372
-0.148191
-0.152919
-0.157555
-0.162094
-0.166536
-0.170876
-0.175113
-0.179243
-0.183265
-0.187175
-0.190972
-0.194652
-0.198215
-0.201657
-0.204977
-0.208172
-0.211241
-0.214181
-0.216992
-0.219671
-0.222216
-0.224627
-0.226901
-0.229038
-0.231035
-0.232892
-0.234608
-0.236182
-0.237612
-0.238897
-0.240038
-0.241033
-0.241882
-0.242584
-0.243138
-0.243545
-0.243804
-0.243915
-0.243878
-0.243693
-0.24336
-0.242879
-0.242251
-0.241476
-0.240554
-0.239486
-0.238273
-0.236915
-0.235413
-0.233768
-0.231981
-0.230054
-0.227987
-0.225781
-0.223439
-0.22096
-0.218348
-0.215603
-0.212727
-0.209722
-0.20659
-0.203332
-0.199951
-0.196448
-0.192826
-0.189088
-0.185234
-0.181268
-0.177192
-0.173008
-0.168719
-0.164328
-0.159837
-0.155249
-0.150566
-0.145793
-0.14093
-0.135983
-0.130952
-0.125843
-0.120656
-0.115397
-0.110067
-0.104671
-0.0992111
-0.093691
-0.088114
-0.0824835
-0.0768029
-0.0710757
-0.0653054
-0.0594954
-0.0536493
-0.0477706
-0.0418629
-0.0359298
-0.0299749
-0.0240018
-0.0180141
-0.0120155
-0.00600956
0
0
0.00659642
0.0131888
0.0197732
0.0263457
0.0329021
0.0394385
0.045951
0.0524356
0.0588884
0.0653054
0.0716827
0.0780166
0.0843031
0.0905384
0.0967187
0.10284
0.1089
0.114893
0.120816
0.126666
0.132439
0.138132
0.14374
0.149262
0.154693
0.16003
0.16527
0.170409
0.175445
0.180375
0.185195
0.189903
0.194495
0.198969
0.203323
0.207553
0.211657
0.215632
0.219477
0.223188
0.226764
0.230202
0.233501
0.236658
0.239671
0.242538
0.245259
0.24783
0.250251
0.25252
0.254636
0.256597
0.258402
0.26005
0.261541
0.262873
0.264045
0.265057
0.265908
0.266598
0.267125
0.267491
0.267694
0.267735
0.267613
0.267328
0.266882
0.266273
0.265503
0.264571
0.263479
0.262227
0.260816
0.259246
0.257519
0.255635
0.253597
0.251404
0.249059
0.246563
0.243917
0.241123
0.238182
0.235097
0.231869
0.228501
0.224993
0.22135
0.217571
0.213661
0.209621
0.205453
0.201161
0.196747
0.192213
0.187563
0.182799
0.177924
0.172941
0.167852
0.162662
0.157373
0.151989
0.146512
0.140947
0.135296
0.129562
0.12375
0.117863
0.111905
0.105878
0.0997871
0.0936356
0.0874274
0.081166
0.0748553
0.0684993
0.0621016
0.0556662
0.049197
0.042698
0.036173
0.0296261
0.0230612
0.0164823
0.00989338
0.00329846
-0.00329846
-0.00989338
-0.0164823
-0.0230612
-0.0296261
-0.036173
-0.042698
-0.049197
-0.0556662
-0.0621016
-0.0684993
-0.0748553
-0.081166
-0.0874274
-0.0936356
-0.0997871
-0.105878
-0.111905
-0.117863
-0.12375
-0.129562
-0.135296
-0.140947
-0.146512
-0.151989
-0.157373
-0.162662
-0.167852
-0.172941
-0.177924
-0.182799
-0.187563
-0.192213
-0.196747
-0.201161
-0.205453
-0.209621
-0.213661
-0.217571
-0.22135
-0.224993
-0.228501
-0.231869
-0.235097
-0.238182
-0.241123
-0.243917
-0.246563
-0.249059
-0.251404
-0.253597
-0.255635
-0.257519
-0.259246
-0.260816
-0.262227
-0.263479
-0.264571
-0.265503
-0.266273
-0.266882
-0.267328
-0.267613
-0.267735
-0.267694
-0.267491
-0.267125
-0.266598
-0.265908
-0.265057
-0.264045
-0.262873
-0.261541
-0.26005
-0.258402
-0.256597
-0.254636
-0.25252
-0.250251
-0.24783
-0.245259
-0.242538
-0.239671
-0.236658
-0.233501
-0.230202
-0.226764
-0.223188
-0.219477
-0.215632
-0.211657
-0.207553
-0.203323
-0.198969
-0.194495
-0.189903
-0.185195
-0.180375
-0.175445
-0.170409
-0.16527
-0.16003
-0.154693
-0.149262
-0.14374
-0.138132
-0.132439
-0.126666
-0.120816
-0.114893
-0.1089
-0.10284
-0.0967187
-0.0905384
-0.0843031
-0.0780166
-0.0716827
-0.0653054
-0.0588884
-0.0524356
-0.045951
-0.0394385
-0.0329021
-0.0263457
-0.0197732
-0.0131888
-0.00659642
0
0
0.00717928
0.0143542
0.0215204
0.0286735
0.0358093
0.0429233
0.0500112
0.0570688
0.0640917
0.0710757
0.0780166
0.0849101
0.091752
0.0985383
0.105265
0.111927
0.118522
0.125044
0.131491
0.137858
0.144141
0.150337
0.156441
0.162451
0.168362
0.17417
0.179873
0.185467
0.190948
0.196313
0.201559
0.206682
0.211681
0.21655
0.221288
0.225892
0.230359
0.234686
0.23887
0.242909
0.246801
0.250543
0.254133
0.257569
0.260848
0.263969
0.266929
0.269728
0.272363
0.274832
0.277135
0.279269
0.281234
0.283028
0.284651
0.2861
0.287376
0.288477
0.289403
0.290154
0.290728
0.291126
0.291347
0.291391
0.291259
0.290949
0.290463
0.289801
0.288962
0.287948
0.28676
0.285397
0.283861
0.282153
0.280273
0.278223
0.276005
0.273618
0.271066
0.268349
0.265469
0.262428
0.259228
0.25587
0.252357
0.248691
0.244874
0.240908
0.236796
0.23254
0.228143
0.223607
0.218936
0.214132
0.209197
0.204136
0.198951
0.193645
0.188221
0.182684
0.177035
0.171279
0.165419
0.159458
0.153401
0.14725
0.14101
0.134685
0.128278
0.121792
0.115233
0.108604
0.101909
0.0951524
0.0883378
0.0814695
0.0745518
0.0675888
0.0605848
0.0535441
0.0464708