# vtk DataFile Version 3.0
Scalar Field Data
ASCII
DATASET STRUCTURED_POINTS
DIMENSIONS 16 16 1
ORIGIN 0 0 0
SPACING 0.0666667 0.0666667 1
POINT_DATA 256
SCALARS scalars double
LOOKUP_TABLE default
0
0
0
0
0
0
0
0
0
0
0
0
0
0
0
0
0
0.167875
0.306722
0.392535
0.410475
0.35744
0.2426
0.0858126
-0.0858126
-0.2426
-0.35744
-0.410475
-0.392535
-0.306722
-0.167875
0
0
0.306722
0.56041
0.717197
0.749975
0.653075
0.443252
0.156787
-0.156787
-0.443252
-0.653075
-0.749975
-0.717197
-0.56041
-0.306722
0
0
0.392535
0.717197
0.91785
0.959797
0.835787
0.567262
0.200652
-0.200652
-0.567262
-0.835787
-0.959797
-0.91785
-0.717197
-0.392535
0
0
0.410475
0.749975
0.959797
1.00366
0.873985
0.593187
0.209823
-0.209823
-0.593187
-0.873985
-1.00366
-0.959797
-0.749975
-0.410475
0
0
0.35744
0.653075
0.835787
0.873985
0.761062
0.516545
0.182713
-0.182713
-0.516545
-0.761062
-0.873985
-0.835787
-0.653075
-0.35744
0
0
0.2426
0.443252
0.567262
0.593187
0.516545
0.350587
0.12401
-0.12401
-0.350587
-0.516545
-0.593187
-0.567262
-0.443252
-0.2426
0
0
0.0858126
0.156787
0.200652
0.209823
0.182713
0.12401
0.0438649
-0.0438649
-0.12401
-0.182713
-0.209823
-0.200652
-0.156787
-0.0858126
0
0
-0.0858126
-0.156787
-0.200652
-0.209823
-0.182713
-0.12401
-0.0438649
0.0438649
0.12401
0.182713
0.209823
0.200652
0.156787
0.0858126
0
0
-0.2426
-0.443252
-0.567262
-0.593187
-0.516545
-0.350587
-0.12401
0.12401
0.350587
0.516545
0.593187
0.567262
0.443252
0.2426
0
0
-0.35744
-0.653075
-0.835787
-0.873985
-0.761062
-0.516545
-0.182713
0.182713
0.516545
0.761062
0.873985
0.835787
0.653075
0.35744
0
0
-0.410475
-0.749975
-0.959797
-1.00366
-0.873985
-0.593187
-0.209823
0.209823
0.593187
0.873985
1.00366
0.959797
0.749975
0.410475
0
0
-0.392535
-0.717197
-0.91785
-0.959797
-0.835787
-0.567262
-0.200652
0.200652
0.567262
0.835787
0.959797
0.91785
0.717197
0.392535
0
0
-0.306722
-0.56041
-0.717197
-0.749975
-0.653075
-0.443252
-0.156787
0.156787
0.443252
0.653075
0.749975
0.717197
0.56041
0.306722
0
0
-0.167875
-0.306722
-0.392535
-0.410475
-0.35744
-0.2426
-0.0858126
0.0858126
0.2426
0.35744
0.410475
0.392535
0.306722
0.167875
0
0
0
0
0
0
0
0
0
0
0
0
0
0
0
0
0
