# vtk DataFile Version 3.0
Scalar Field Data
ASCII
DATASET STRUCTURED_POINTS
DIMENSIONS 128 128 1
ORIGIN 0 0 0
SPACING 0.00787402 0.00787402 1
POINT_DATA 16384
SCALARS scalars double
LOOKUP_TABLE default
0
0
0
0
0
0
0
0
0
0
0
0
0
0
0
0
0
0
0
0
0
0
0
0
0
0
0
0
0
0
0
0
0
0
0
0
0
0
0
0
0
0
0
0
0
0
0
0
0
0
0
0
0
0
0
0
0
0
0
0
0
0
0
0
0
0
0
0
0
0
0
0
0
0
0
0
0
0
0
0
0
0
0
0
0
0
0
0
0
0
0
0
0
0
0
0
0
0
0
0
0
0
0
0
0
0
0
0
0
0
0
0
0
0
0
0
0
0
0
0
0
0
0
0
0
0
0
0
0
0.00244614
0.00488629
0.00731448
0.00972478
0.0121113
0.0144681
0.0167896
0.0190699
0.0213036
0.0234852
0.0256093
0.0276707
0.0296644
0.0315855
0.0334294
0.0351914
0.0368673
0.0384529
0.0399445
0.0413383
0.042631
0.0438193
0.0449004
0.0458716
0.0467306
0.0474752
0.0481036
0.0486143
0.0490061
0.0492779
0.0494291
0.0494594
0.0493686
0.049157
0.0488252
0.0483738
0.047804
0.0471173
0.0463153
0.0453999
0.0443734
0.0432384
0.0419975
0.0406539
0.0392107
0.0376716
0.0360403
0.0343209
0.0325174
0.0306344
0.0286764
0.0266482
0.0245548
0.0224013
0.020193
0.0179353
0.0156336
0.0132938
0.0109214
0.00852224
0.00610225
0.00366734
0.00122344
-0.00122344
-0.00366734
-0.00610225
-0.00852224
-0.0109214
-0.0132938
-0.0156336
-0.0179353
-0.020193
-0.0224013
-0.0245548
-0.0266482
-0.0286764
-0.0306344
-0.0325174
-0.0343209
-0.0360403
-0.0376716
-0.0392107
-0.0406539
-0.0419975
-0.0432384
-0.0443734
-0.0453999
-0.0463153
-0.0471173
-0.047804
-0.0483738
-0.0488252
-0.049157
-0.0493686
-0.0494594
-0.0494291
-0.0492779
-0.0490061
-0.0486143
-0.0481036
-0.0474752
-0.0467306
-0.0458716
-0.0449004
-0.0438193
-0.042631
-0.0413383
-0.0399445
-0.0384529
-0.0368673
-0.0351914
-0.0334294
-0.0315855
-0.0296644
-0.0276707
-0.0256093
-0.0234852
-0.0213036
-0.0190699
-0.0167896
-0.0144681
-0.0121113
-0.00972478
-0.00731448
-0.00488629
-0.00244614
0
0
0.00488629
0.00976062
0.0146111
0.0194258
0.0241929
0.0289009
0.0335381
0.0380932
0.0425552
0.046913
0.0511559
0.0552737
0.0592563
0.0630938
0.0667769
0.0702966
0.0736443
0.0768118
0.0797913
0.0825755
0.0851576
0.0875314
0.0896909
0.091631
0.0933468
0.0948342
0.0960895
0.0971097
0.0978922
0.0984352
0.0987373
0.0987977
0.0986164
0.0981938
0.0975308
0.0966292
0.0954911
0.0941193
0.0925172
0.0906887
0.0886383
0.0863709
0.0838922
0.0812082
0.0783255
0.0752511
0.0719925
0.0685577
0.0649552
0.0611938
0.0572825
0.0532311
0.0490495
0.0447477
0.0403365
0.0358266
0.031229
0.026555
0.021816
0.0170236
0.0121896
0.0073257
0.00244389
-0.00244389
-0.0073257
-0.0121896
-0.0170236
-0.021816
-0.026555
-0.031229
-0.0358266
-0.0403365
-0.0447477
-0.0490495
-0.0532311
-0.0572825
-0.0611938
-0.0649552
-0.0685577
-0.0719925
-0.0752511
-0.0783255
-0.0812082
-0.0838922
-0.0863709
-0.0886383
-0.0906887
-0.0925172
-0.0941193
-0.0954911
-0.0966292
-0.0975308
-0.0981938
-0.0986164
-0.0987977
-0.0987373
-0.0984352
-0.0978922
-0.0971097
-0.0960895
-0.0948342
-0.0933468
-0.091631
-0.0896909
-0.0875314
-0.0851576
-0.0825755
-0.0797913
-0.0768118
-0.0736443
-0.0702966
-0.0667769
-0.0630938
-0.0592563
-0.0552737
-0.0511559
-0.046913
-0.0425552
-0.0380932
-0.0335381
-0.0289009
-0.0241929
-0.0194258
-0.0146111
-0.00976062
-0.00488629
0
0
0.00731448
0.0146111
0.0218719
0.0290792
0.0362153
0.0432629
0.0502045
0.0570233
0.0637025
0.0702259
0.0765774
0.0827415
0.0887031
0.0944476
0.0999611
0.10523
0.110241
0.114983
0.119443
0.123611
0.127476
0.131029
0.134262
0.137166
0.139735
0.141961
0.14384
0.145367
0.146539
0.147352
0.147804
0.147894
0.147623
0.14699
0.145998
0.144648
0.142944
0.140891
0.138493
0.135756
0.132686
0.129292
0.125582
0.121564
0.117249
0.112646
0.107768
0.102627
0.0972341
0.0916034
0.0857485
0.0796838
0.0734241
0.0669847
0.0603814
0.0536303
0.046748
0.0397513
0.0326573
0.0254833
0.0182471
0.0109661
0.00365836
-0.00365836
-0.0109661
-0.0182471
-0.0254833
-0.0326573
-0.0397513
-0.046748
-0.0536303
-0.0603814
-0.0669847
-0.0734241
-0.0796838
-0.0857485
-0.0916034
-0.0972341
-0.102627
-0.107768
-0.112646
-0.117249
-0.121564
-0.125582
-0.129292
-0.132686
-0.135756
-0.138493
-0.140891
-0.142944
-0.144648
-0.145998
-0.14699
-0.147623
-0.147894
-0.147804
-0.147352
-0.146539
-0.145367
-0.14384
-0.141961
-0.139735
-0.137166
-0.134262
-0.131029
-0.127476
-0.123611
-0.119443
-0.114983
-0.110241
-0.10523
-0.0999611
-0.0944476
-0.0887031
-0.0827415
-0.0765774
-0.0702259
-0.0637025
-0.0570233
-0.0502045
-0.0432629
-0.0362153
-0.0290792
-0.0218719
-0.0146111
-0.00731448
0
0
0.00972478
0.0194258
0.0290792
0.0386615
0.0481492
0.057519
0.0667481
0.0758138
0.084694
0.093367
0.101811
0.110007
0.117933
0.12557
0.132901
0.139906
0.146568
0.152872
0.158802
0.164343
0.169482
0.174207
0.178504
0.182366
0.18578
0.188741
0.191239
0.193269
0.194827
0.195907
0.196509
0.196629
0.196268
0.195427
0.194108
0.192313
0.190048
0.187318
0.184129
0.18049
0.176409
0.171897
0.166964
0.161622
0.155885
0.149766
0.143281
0.136445
0.129275
0.121789
0.114005
0.105942
0.0976191
0.0890577
0.0802785
0.0713028
0.0621525
0.0528502
0.0434186
0.0338807
0.0242599
0.0145797
0.00486388
-0.00486388
-0.0145797
-0.0242599
-0.0338807
-0.0434186
-0.0528502
-0.0621525
-0.0713028
-0.0802785
-0.0890577
-0.0976191
-0.105942
-0.114005
-0.121789
-0.129275
-0.136445
-0.143281
-0.149766
-0.155885
-0.161622
-0.166964
-0.171897
-0.176409
-0.18049
-0.184129
-0.187318
-0.190048
-0.192313
-0.194108
-0.195427
-0.196268
-0.196629
-0.196509
-0.195907
-0.194827
-0.193269
-0.191239
-0.188741
-0.18578
-0.182366
-0.178504
-0.174207
-0.169482
-0.164343
-0.158802
-0.152872
-0.146568
-0.139906
-0.132901
-0.12557
-0.117933
-0.110007
-0.101811
-0.093367
-0.084694
-0.0758138
-0.0667481
-0.057519
-0.0481492
-0.0386615
-0.0290792
-0.0194258
-0.00972478
0
0
0.0121113
0.0241929
0.0362153
0.0481492
0.0599651
0.0716344
0.0831283
0.0944188
0.105478
0.11628
0.126796
0.137003
0.146874
0.156386
0.165515
0.174239
0.182537
0.190387
0.197773
0.204674
0.211074
0.216957
0.22231
0.227119
0.231372
0.235058
0.23817
0.240698
0.242638
0.243984
0.244733
0.244882
0.244433
0.243385
0.241742
0.239507
0.236687
0.233286
0.229315
0.224783
0.219701
0.214081
0.207937
0.201285
0.194139
0.186519
0.178442
0.169929
0.161
0.151676
0.141982
0.13194
0.121575
0.110913
0.0999791
0.0888007
0.077405
0.0658199
0.0540737
0.0421952
0.0302134
0.0181576
0.00605749
-0.00605749
-0.0181576
-0.0302134
-0.0421952
-0.0540737
-0.0658199
-0.077405
-0.0888007
-0.0999791
-0.110913
-0.121575
-0.13194
-0.141982
-0.151676
-0.161
-0.169929
-0.178442
-0.186519
-0.194139
-0.201285
-0.207937
-0.214081
-0.219701
-0.224783
-0.229315
-0.233286
-0.236687
-0.239507
-0.241742
-0.243385
-0.244433
-0.244882
-0.244733
-0.243984
-0.242638
-0.240698
-0.23817
-0.235058
-0.231372
-0.227119
-0.22231
-0.216957
-0.211074
-0.204674
-0.197773
-0.190387
-0.182537
-0.174239
-0.165515
-0.156386
-0.146874
-0.137003
-0.126796
-0.11628
-0.105478
-0.0944188
-0.0831283
-0.0716344
-0.0599651
-0.0481492
-0.0362153
-0.0241929
-0.0121113
0
0
0.0144681
0.0289009
0.0432629
0.057519
0.0716344
0.0855744
0.0993051
0.112793
0.126004
0.138908
0.151471
0.163664
0.175456
0.186819
0.197724
0.208146
0.218058
0.227437
0.236259
0.244503
0.252149
0.259177
0.265572
0.271316
0.276397
0.280801
0.284518
0.287538
0.289856
0.291463
0.292358
0.292537
0.292
0.290748
0.288785
0.286116
0.282746
0.278684
0.27394
0.268526
0.262455
0.255741
0.248402
0.240455
0.231919
0.222816
0.213167
0.202997
0.19233
0.181193
0.169612
0.157615
0.145234
0.132497
0.119435
0.106081
0.092468
0.0786285
0.0645964
0.0504063
0.0360929
0.0216911
0.00723628
-0.00723628
-0.0216911
-0.0360929
-0.0504063
-0.0645964
-0.0786285
-0.092468
-0.106081
-0.119435
-0.132497
-0.145234
-0.157615
-0.169612
-0.181193
-0.19233
-0.202997
-0.213167
-0.222816
-0.231919
-0.240455
-0.248402
-0.255741
-0.262455
-0.268526
-0.27394
-0.278684
-0.282746
-0.286116
-0.288785
-0.290748
-0.292
-0.292537
-0.292358
-0.291463
-0.289856
-0.287538
-0.284518
-0.280801
-0.276397
-0.271316
-0.265572
-0.259177
-0.252149
-0.244503
-0.236259
-0.227437
-0.218058
-0.208146
-0.197724
-0.186819
-0.175456
-0.163664
-0.151471
-0.138908
-0.126004
-0.112793
-0.0993051
-0.0855744
-0.0716344
-0.057519
-0.0432629
-0.0289009
-0.0144681
0
0
0.0167896
0.0335381
0.0502045
0.0667481
0.0831283
0.0993051
0.115239
0.130891
0.146222
0.161196
0.175775
0.189924
0.203608
0.216794
0.229449
0.241543
0.253046
0.26393
0.274168
0.283734
0.292607
0.300763
0.308183
0.31485
0.320745
0.325856
0.330169
0.333675
0.336364
0.338229
0.339267
0.339475
0.338852
0.3374
0.335122
0.332024
0.328113
0.3234
0.317895
0.311612
0.304566
0.296776
0.288259
0.279036
0.269131
0.258567
0.247371
0.235569
0.22319
0.210265
0.196826
0.182905
0.168537
0.153756
0.138599
0.123102
0.107305
0.0912446
0.0749611
0.0584942
0.0418841
0.0251715
0.00839736
-0.00839736
-0.0251715
-0.0418841
-0.0584942
-0.0749611
-0.0912446
-0.107305
-0.123102
-0.138599
-0.153756
-0.168537
-0.182905
-0.196826
-0.210265
-0.22319
-0.235569
-0.247371
-0.258567
-0.269131
-0.279036
-0.288259
-0.296776
-0.304566
-0.311612
-0.317895
-0.3234
-0.328113
-0.332024
-0.335122
-0.3374
-0.338852
-0.339475
-0.339267
-0.338229
-0.336364
-0.333675
-0.330169
-0.325856
-0.320745
-0.31485
-0.308183
-0.300763
-0.292607
-0.283734
-0.274168
-0.26393
-0.253046
-0.241543
-0.229449
-0.216794
-0.203608
-0.189924
-0.175775
-0.161196
-0.146222
-0.130891
-0.115239
-0.0993051
-0.0831283
-0.0667481
-0.0502045
-0.0335381
-0.0167896
0
0
0.0190699
0.0380932
0.0570233
0.0758138
0.0944188
0.112793
0.130891
0.148668
0.166082
0.183089
0.199649
0.215719
0.231262
0.246239
0.260613
0.27435
0.287415
0.299777
0.311405
0.322271
0.332349
0.341613
0.350041
0.357613
0.364309
0.370114
0.375013
0.378995
0.382049
0.384168
0.385347
0.385583
0.384875
0.383225
0.380638
0.377119
0.372678
0.367324
0.361071
0.353935
0.345933
0.337084
0.32741
0.316935
0.305684
0.293686
0.280968
0.267564
0.253504
0.238824
0.223559
0.207748
0.191428
0.174639
0.157423
0.139822
0.121879
0.103637
0.0851424
0.0664389
0.0475728
0.0285903
0.00953789
-0.00953789
-0.0285903
-0.0475728
-0.0664389
-0.0851424
-0.103637
-0.121879
-0.139822
-0.157423
-0.174639
-0.191428
-0.207748
-0.223559
-0.238824
-0.253504
-0.267564
-0.280968
-0.293686
-0.305684
-0.316935
-0.32741
-0.337084
-0.345933
-0.353935
-0.361071
-0.367324
-0.372678
-0.377119
-0.380638
-0.383225
-0.384875
-0.385583
-0.385347
-0.384168
-0.382049
-0.378995
-0.375013
-0.370114
-0.364309
-0.357613
-0.350041
-0.341613
-0.332349
-0.322271
-0.311405
-0.299777
-0.287415
-0.27435
-0.260613
-0.246239
-0.231262
-0.215719
-0.199649
-0.183089
-0.166082
-0.148668
-0.130891
-0.112793
-0.0944188
-0.0758138
-0.0570233
-0.0380932
-0.0190699
0
0
0.0213036
0.0425552
0.0637025
0.084694
0.105478
0.126004
0.146222
0.166082
0.185535
0.204535
0.223034
0.240987
0.25835
0.275082
0.291139
0.306485
0.321081
0.33489
0.34788
0.360019
0.371277
0.381627
0.391042
0.3995
0.406981
0.413466
0.418939
0.423387
0.426799
0.429166
0.430483
0.430747
0.429956
0.428113
0.425223
0.421292
0.41633
0.410349
0.403364
0.395392
0.386453
0.376567
0.36576
0.354058
0.34149
0.328086
0.313879
0.298904
0.283197
0.266798
0.249745
0.232081
0.21385
0.195095
0.175863
0.1562
0.136155
0.115777
0.0951152
0.074221
0.0531451
0.0319392
0.0106551
-0.0106551
-0.0319392
-0.0531451
-0.074221
-0.0951152
-0.115777
-0.136155
-0.1562
-0.175863
-0.195095
-0.21385
-0.232081
-0.249745
-0.266798
-0.283197
-0.298904
-0.313879
-0.328086
-0.34149
-0.354058
-0.36576
-0.376567
-0.386453
-0.395392
-0.403364
-0.410349
-0.41633
-0.421292
-0.425223
-0.428113
-0.429956
-0.430747
-0.430483
-0.429166
-0.426799
-0.423387
-0.418939
-0.413466
-0.406981
-0.3995
-0.391042
-0.381627
-0.371277
-0.360019
-0.34788
-0.33489
-0.321081
-0.306485
-0.291139
-0.275082
-0.25835
-0.240987
-0.223034
-0.204535
-0.185535
-0.166082
-0.146222
-0.126004
-0.105478
-0.084694
-0.0637025
-0.0425552
-0.0213036
0
0
0.0234852
0.046913
0.0702259
0.093367
0.11628
0.138908
0.161196
0.183089
0.204535
0.22548
0.245873
0.265665
0.284806
0.303251
0.320953
0.33787
0.35396
0.369184
0.383505
0.396887
0.409297
0.420706
0.431086
0.440411
0.448657
0.455806
0.46184
0.466743
0.470504
0.473114
0.474566
0.474856
0.473985
0.471953
0.468767
0.464434
0.458964
0.45237
0.44467
0.435882
0.426027
0.415129
0.403215
0.390315
0.37646
0.361683
0.346021
0.329512
0.312197
0.294119
0.27532
0.255847
0.235749
0.215073
0.193871
0.172195
0.150098
0.127633
0.104855
0.0818215
0.0585873
0.0352099
0.0117462
-0.0117462
-0.0352099
-0.0585873
-0.0818215
-0.104855
-0.127633
-0.150098
-0.172195
-0.193871
-0.215073
-0.235749
-0.255847
-0.27532
-0.294119
-0.312197
-0.329512
-0.346021
-0.361683
-0.37646
-0.390315
-0.403215
-0.415129
-0.426027
-0.435882
-0.44467
-0.45237
-0.458964
-0.464434
-0.468767
-0.471953
-0.473985
-0.474856
-0.474566
-0.473114
-0.470504
-0.466743
-0.46184
-0.455806
-0.448657
-0.440411
-0.431086
-0.420706
-0.409297
-0.396887
-0.383505
-0.369184
-0.35396
-0.33787
-0.320953
-0.303251
-0.284806
-0.265665
-0.245873
-0.22548
-0.204535
-0.183089
-0.161196
-0.138908
-0.11628
-0.093367
-0.0702259
-0.046913
-0.0234852
0
0
0.0256093
0.0511559
0.0765774
0.101811
0.126796
0.151471
0.175775
0.199649
0.223034
0.245873
0.268111
0.289693
0.310565
0.330678
0.349981
0.368428
0.385974
0.402575
0.41819
0.432783
0.446316
0.458757
0.470075
0.480243
0.489236
0.497031
0.50361
0.508957
0.513058
0.515904
0.517487
0.517804
0.516854
0.514639
0.511164
0.506439
0.500474
0.493284
0.484888
0.475304
0.464558
0.452675
0.439684
0.425617
0.410508
0.394395
0.377316
0.359315
0.340434
0.32072
0.300221
0.278987
0.257071
0.234525
0.211406
0.187769
0.163673
0.139176
0.114339
0.0892217
0.0638862
0.0383944
0.0128086
-0.0128086
-0.0383944
-0.0638862
-0.0892217
-0.114339
-0.139176
-0.163673
-0.187769
-0.211406
-0.234525
-0.257071
-0.278987
-0.300221
-0.32072
-0.340434
-0.359315
-0.377316
-0.394395
-0.410508
-0.425617
-0.439684
-0.452675
-0.464558
-0.475304
-0.484888
-0.493284
-0.500474
-0.506439
-0.511164
-0.514639
-0.516854
-0.517804
-0.517487
-0.515904
-0.513058
-0.508957
-0.50361
-0.497031
-0.489236
-0.480243
-0.470075
-0.458757
-0.446316
-0.432783
-0.41819
-0.402575
-0.385974
-0.368428
-0.349981
-0.330678
-0.310565
-0.289693
-0.268111
-0.245873
-0.223034
-0.199649
-0.175775
-0.151471
-0.126796
-0.101811
-0.0765774
-0.0511559
-0.0256093
0
0
0.0276707
0.0552737
0.0827415
0.110007
0.137003
0.163664
0.189924
0.215719
0.240987
0.265665
0.289693
0.313011
0.335564
0.357296
0.378153
0.398085
0.417043
0.43498
0.451852
0.467619
0.482242
0.495684
0.507914
0.5189
0.528617
0.53704
0.544149
0.549926
0.554357
0.557432
0.559143
0.559485
0.558458
0.556065
0.55231
0.547205
0.54076
0.532991
0.523919
0.513564
0.501953
0.489113
0.475076
0.459877
0.443552
0.426142
0.407689
0.388238
0.367837
0.346536
0.324387
0.301444
0.277764
0.253403
0.228423
0.202884
0.176848
0.150379
0.123543
0.0964036
0.0690287
0.0414849
0.0138396
-0.0138396
-0.0414849
-0.0690287
-0.0964036
-0.123543
-0.150379
-0.176848
-0.202884
-0.228423
-0.253403
-0.277764
-0.301444
-0.324387
-0.346536
-0.367837
-0.388238
-0.407689
-0.426142
-0.443552
-0.459877
-0.475076
-0.489113
-0.501953
-0.513564
-0.523919
-0.532991
-0.54076
-0.547205
-0.55231
-0.556065
-0.558458
-0.559485
-0.559143
-0.557432
-0.554357
-0.549926
-0.544149
-0.53704
-0.528617
-0.5189
-0.507914
-0.495684
-0.482242
-0.467619
-0.451852
-0.43498
-0.417043
-0.398085
-0.378153
-0.357296
-0.335564
-0.313011
-0.289693
-0.265665
-0.240987
-0.215719
-0.189924
-0.163664
-0.137003
-0.110007
-0.0827415
-0.0552737
-0.0276707
0
0
0.0296644
0.0592563
0.0887031
0.117933
0.146874
0.175456
0.203608
0.231262
0.25835
0.284806
0.310565
0.335564
0.359742
0.383039
0.405399
0.426767
0.447091
0.466321
0.484409
0.501312
0.516988
0.531399
0.544509
0.556288
0.566704
0.575734
0.583355
0.589548
0.594299
0.597595
0.599429
0.599796
0.598696
0.59613
0.592105
0.586631
0.579722
0.571394
0.561668
0.550567
0.538119
0.524354
0.509306
0.493011
0.47551
0.456846
0.437063
0.416211
0.39434
0.371504
0.347759
0.323164
0.297777
0.271661
0.244881
0.217502
0.18959
0.161214
0.132444
0.10335
0.0740023
0.044474
0.0148368
-0.0148368
-0.044474
-0.0740023
-0.10335
-0.132444
-0.161214
-0.18959
-0.217502
-0.244881
-0.271661
-0.297777
-0.323164
-0.347759
-0.371504
-0.39434
-0.416211
-0.437063
-0.456846
-0.47551
-0.493011
-0.509306
-0.524354
-0.538119
-0.550567
-0.561668
-0.571394
-0.579722
-0.586631
-0.592105
-0.59613
-0.598696
-0.599796
-0.599429
-0.597595
-0.594299
-0.589548
-0.583355
-0.575734
-0.566704
-0.556288
-0.544509
-0.531399
-0.516988
-0.501312
-0.484409
-0.466321
-0.447091
-0.426767
-0.405399
-0.383039
-0.359742
-0.335564
-0.310565
-0.284806
-0.25835
-0.231262
-0.203608
-0.175456
-0.146874
-0.117933
-0.0887031
-0.0592563
-0.0296644
0
0
0.0315855
0.0630938
0.0944476
0.12557
0.156386
0.186819
0.216794
0.246239
0.275082
0.303251
0.330678
0.357296
0.383039
0.407846
0.431654
0.454406
0.476045
0.49652
0.51578
0.533778
0.550469
0.565813
0.579773
0.592314
0.603405
0.61302
0.621134
0.627729
0.632787
0.636297
0.638249
0.63864
0.637468
0.634736
0.630451
0.624622
0.617266
0.608398
0.598042
0.586222
0.572968
0.558312
0.542289
0.524939
0.506305
0.486432
0.465368
0.443165
0.419878
0.395564
0.370281
0.344092
0.317061
0.289255
0.26074
0.231587
0.201868
0.171655
0.141021
0.110043
0.0787948
0.0473542
0.0157976
-0.0157976
-0.0473542
-0.0787948
-0.110043
-0.141021
-0.171655
-0.201868
-0.231587
-0.26074
-0.289255
-0.317061
-0.344092
-0.370281
-0.395564
-0.419878
-0.443165
-0.465368
-0.486432
-0.506305
-0.524939
-0.542289
-0.558312
-0.572968
-0.586222
-0.598042
-0.608398
-0.617266
-0.624622
-0.630451
-0.634736
-0.637468
-0.63864
-0.638249
-0.636297
-0.632787
-0.627729
-0.621134
-0.61302
-0.603405
-0.592314
-0.579773
-0.565813
-0.550469
-0.533778
-0.51578
-0.49652
-0.476045
-0.454406
-0.431654
-0.407846
-0.383039
-0.357296
-0.330678
-0.303251
-0.275082
-0.246239
-0.216794
-0.186819
-0.156386
-0.12557
-0.0944476
-0.0630938
-0.0315855
0
0
0.0334294
0.0667769
0.0999611
0.132901
0.165515
0.197724
0.229449
0.260613
0.291139
0.320953
0.349981
0.378153
0.405399
0.431654
0.456852
0.480932
0.503835
0.525505
0.545889
0.564937
0.582603
0.598843
0.613617
0.62689
0.638629
0.648805
0.657393
0.664372
0.669726
0.673441
0.675507
0.675921
0.67468
0.671789
0.667253
0.661085
0.653299
0.643914
0.632953
0.620443
0.606415
0.590903
0.573945
0.555583
0.535861
0.514827
0.492534
0.469035
0.444389
0.418655
0.391896
0.364179
0.33557
0.30614
0.275961
0.245106
0.213652
0.181675
0.149253
0.116466
0.0833945
0.0501185
0.0167198
-0.0167198
-0.0501185
-0.0833945
-0.116466
-0.149253
-0.181675
-0.213652
-0.245106
-0.275961
-0.30614
-0.33557
-0.364179
-0.391896
-0.418655
-0.444389
-0.469035
-0.492534
-0.514827
-0.535861
-0.555583
-0.573945
-0.590903
-0.606415
-0.620443
-0.632953
-0.643914
-0.653299
-0.661085
-0.667253
-0.671789
-0.67468
-0.675921
-0.675507
-0.673441
-0.669726
-0.664372
-0.657393
-0.648805
-0.638629
-0.62689
-0.613617
-0.598843
-0.582603
-0.564937
-0.545889
-0.525505
-0.503835
-0.480932
-0.456852
-0.431654
-0.405399
-0.378153
-0.349981
-0.320953
-0.291139
-0.260613
-0.229449
-0.197724
-0.165515
-0.132901
-0.0999611
-0.0667769
-0.0334294
0
0
0.0351914
0.0702966
0.10523
0.139906
0.174239
0.208146
0.241543
0.27435
0.306485
0.33787
0.368428
0.398085
0.426767
0.454406
0.480932
0.506281
0.530391
0.553203
0.574662
0.594714
0.613311
0.630407
0.64596
0.659932
0.67229
0.683002
0.692043
0.69939
0.705026
0.708937
0.711112
0.711548
0.710242
0.707198
0.702423
0.69593
0.687733
0.677853
0.666315
0.653146
0.638379
0.622049
0.604197
0.584867
0.564105
0.541963
0.518495
0.493757
0.467812
0.440721
0.412552
0.383374
0.353257
0.322276
0.290506
0.258026
0.224913
0.191251
0.15712
0.122605
0.0877901
0.0527601
0.0176011
-0.0176011
-0.0527601
-0.0877901
-0.122605
-0.15712
-0.191251
-0.224913
-0.258026
-0.290506
-0.322276
-0.353257
-0.383374
-0.412552
-0.440721
-0.467812
-0.493757
-0.518495
-0.541963
-0.564105
-0.584867
-0.604197
-0.622049
-0.638379
-0.653146
-0.666315
-0.677853
-0.687733
-0.69593
-0.702423
-0.707198
-0.710242
-0.711548
-0.711112
-0.708937
-0.705026
-0.69939
-0.692043
-0.683002
-0.67229
-0.659932
-0.64596
-0.630407
-0.613311
-0.594714
-0.574662
-0.553203
-0.530391
-0.506281
-0.480932
-0.454406
-0.426767
-0.398085
-0.368428
-0.33787
-0.306485
-0.27435
-0.241543
-0.208146
-0.174239
-0.139906
-0.10523
-0.0702966
-0.0351914
0
0
0.0368673
0.0736443
0.110241
0.146568
0.182537
0.218058
0.253046
0.287415
0.321081
0.35396
0.385974
0.417043
0.447091
0.476045
0.503835
0.530391
0.555649
0.579548
0.602028
0.623036
0.642518
0.660428
0.676722
0.69136
0.704306
0.715528
0.725
0.732697
0.738601
0.742698
0.744977
0.745433
0.744065
0.740876
0.735874
0.729071
0.720484
0.710134
0.698046
0.68425
0.66878
0.651672
0.63297
0.612719
0.590969
0.567772
0.543186
0.517271
0.49009
0.461709
0.432199
0.401631
0.37008
0.337624
0.304341
0.270313
0.235624
0.200359
0.164603
0.128444
0.0919709
0.0552727
0.0184393
-0.0184393
-0.0552727
-0.0919709
-0.128444
-0.164603
-0.200359
-0.235624
-0.270313
-0.304341
-0.337624
-0.37008
-0.401631
-0.432199
-0.461709
-0.49009
-0.517271
-0.543186
-0.567772
-0.590969
-0.612719
-0.63297
-0.651672
-0.66878
-0.68425
-0.698046
-0.710134
-0.720484
-0.729071
-0.735874
-0.740876
-0.744065
-0.745433
-0.744977
-0.742698
-0.738601
-0.732697
-0.725
-0.715528
-0.704306
-0.69136
-0.676722
-0.660428
-0.642518
-0.623036
-0.602028
-0.579548
-0.555649
-0.530391
-0.503835
-0.476045
-0.447091
-0.417043
-0.385974
-0.35396
-0.321081
-0.287415
-0.253046
-0.218058
-0.182537
-0.146568
-0.110241
-0.0736443
-0.0368673
0
0
0.0384529
0.0768118
0.114983
0.152872
0.190387
0.227437
0.26393
0.299777
0.33489
0.369184
0.402575
0.43498
0.466321
0.49652
0.525505
0.553203
0.579548
0.604475
0.627922
0.649833
0.670153
0.688833
0.705828
0.721095
0.734598
0.746303
0.756182
0.76421
0.770369
0.774642
0.777019
0.777494
0.776068
0.772741
0.767524
0.760429
0.751473
0.740677
0.72807
0.71368
0.697544
0.679701
0.660195
0.639073
0.616387
0.592193
0.566549
0.539519
0.511169
0.481568
0.450788
0.418905
0.385997
0.352145
0.317431
0.28194
0.245759
0.208976
0.171682
0.133968
0.0959265
0.05765
0.0192324
-0.0192324
-0.05765
-0.0959265
-0.133968
-0.171682
-0.208976
-0.245759
-0.28194
-0.317431
-0.352145
-0.385997
-0.418905
-0.450788
-0.481568
-0.511169
-0.539519
-0.566549
-0.592193
-0.616387
-0.639073
-0.660195
-0.679701
-0.697544
-0.71368
-0.72807
-0.740677
-0.751473
-0.760429
-0.767524
-0.772741
-0.776068
-0.777494
-0.777019
-0.774642
-0.770369
-0.76421
-0.756182
-0.746303
-0.734598
-0.721095
-0.705828
-0.688833
-0.670153
-0.649833
-0.627922
-0.604475
-0.579548
-0.553203
-0.525505
-0.49652
-0.466321
-0.43498
-0.402575
-0.369184
-0.33489
-0.299777
-0.26393
-0.227437
-0.190387
-0.152872
-0.114983
-0.0768118
-0.0384529
0
0
0.0399445
0.0797913
0.119443
0.158802
0.197773
0.236259
0.274168
0.311405
0.34788
0.383505
0.41819
0.451852
0.484409
0.51578
0.545889
0.574662
0.602028
0.627922
0.652279
0.675039
0.696148
0.715553
0.733207
0.749066
0.763093
0.775252
0.785514
0.793854
0.800251
0.804689
0.807159
0.807653
0.806171
0.802716
0.797296
0.789926
0.780622
0.769408
0.756311
0.741363
0.724601
0.706066
0.685803
0.663862
0.640296
0.615163
0.588525
0.560447
0.530997
0.500248
0.468274
0.435154
0.40097
0.365804
0.329744
0.292876
0.255291
0.217082
0.178342
0.139165
0.0996475
0.0598862
0.0199784
-0.0199784
-0.0598862
-0.0996475
-0.139165
-0.178342
-0.217082
-0.255291
-0.292876
-0.329744
-0.365804
-0.40097
-0.435154
-0.468274
-0.500248
-0.530997
-0.560447
-0.588525
-0.615163
-0.640296
-0.663862
-0.685803
-0.706066
-0.724601
-0.741363
-0.756311
-0.769408
-0.780622
-0.789926
-0.797296
-0.802716
-0.806171
-0.807653
-0.807159
-0.804689
-0.800251
-0.793854
-0.785514
-0.775252
-0.763093
-0.749066
-0.733207
-0.715553
-0.696148
-0.675039
-0.652279
-0.627922
-0.602028
-0.574662
-0.545889
-0.51578
-0.484409
-0.451852
-0.41819
-0.383505
-0.34788
-0.311405
-0.274168
-0.236259
-0.197773
-0.158802
-0.119443
-0.0797913
-0.0399445
0
0
0.0413383
0.0825755
0.123611
0.164343
0.204674
0.244503
0.283734
0.322271
0.360019
0.396887
0.432783
0.467619
0.501312
0.533778
0.564937
0.594714
0.623036
0.649833
0.675039
0.698594
0.720439
0.740521
0.758791
0.775204
0.78972
0.802304
0.812924
0.821554
0.828175
0.832768
0.835324
0.835835
0.834301
0.830726
0.825117
0.817489
0.807861
0.796256
0.782702
0.767232
0.749886
0.730704
0.709734
0.687027
0.662639
0.636629
0.609061
0.580003
0.549525
0.517703
0.484614
0.450339
0.414962
0.378569
0.34125
0.303095
0.2642
0.224657
0.184565
0.144021
0.103125
0.0619759
0.0206755
-0.0206755
-0.0619759
-0.103125
-0.144021
-0.184565
-0.224657
-0.2642
-0.303095
-0.34125
-0.378569
-0.414962
-0.450339
-0.484614
-0.517703
-0.549525
-0.580003
-0.609061
-0.636629
-0.662639
-0.687027
-0.709734
-0.730704
-0.749886
-0.767232
-0.782702
-0.796256
-0.807861
-0.817489
-0.825117
-0.830726
-0.834301
-0.835835
-0.835324
-0.832768
-0.828175
-0.821554
-0.812924
-0.802304
-0.78972
-0.775204
-0.758791
-0.740521
-0.720439
-0.698594
-0.675039
-0.649833
-0.623036
-0.594714
-0.564937
-0.533778
-0.501312
-0.467619
-0.432783
-0.396887
-0.360019
-0.322271
-0.283734
-0.244503
-0.204674
-0.164343
-0.123611
-0.0825755
-0.0413383
0
0
0.042631
0.0851576
0.127476
0.169482
0.211074
0.252149
0.292607
0.332349
0.371277
0.409297
0.446316
0.482242
0.516988
0.550469
0.582603
0.613311
0.642518
0.670153
0.696148
0.720439
0.742967
0.763677
0.782519
0.799445
0.814415
0.827392
0.838344
0.847245
0.854072
0.858809
0.861445
0.861972
0.86039
0.856703
0.850919
0.843052
0.833123
0.821155
0.807177
0.791224
0.773335
0.753553
0.731927
0.70851
0.683359
0.656536
0.628107
0.59814
0.566709
0.533892
0.499768
0.464421
0.427937
0.390407
0.351921
0.312573
0.272461
0.231682
0.190336
0.148524
0.106349
0.0639139
0.021322
-0.021322
-0.0639139
-0.106349
-0.148524
-0.190336
-0.231682
-0.272461
-0.312573
-0.351921
-0.390407
-0.427937
-0.464421
-0.499768
-0.533892
-0.566709
-0.59814
-0.628107
-0.656536
-0.683359
-0.70851
-0.731927
-0.753553
-0.773335
-0.791224
-0.807177
-0.821155
-0.833123
-0.843052
-0.850919
-0.856703
-0.86039
-0.861972
-0.861445
-0.858809
-0.854072
-0.847245
-0.838344
-0.827392
-0.814415
-0.799445
-0.782519
-0.763677
-0.742967
-0.720439
-0.696148
-0.670153
-0.642518
-0.613311
-0.582603
-0.550469
-0.516988
-0.482242
-0.446316
-0.409297
-0.371277
-0.332349
-0.292607
-0.252149
-0.211074
-0.169482
-0.127476
-0.0851576
-0.042631
0
0
0.0438193
0.0875314
0.131029
0.174207
0.216957
0.259177
0.300763
0.341613
0.381627
0.420706
0.458757
0.495684
0.531399
0.565813
0.598843
0.630407
0.660428
0.688833
0.715553
0.740521
0.763677
0.784965
0.804331
0.821729
0.837117
0.850455
0.861713
0.870861
0.877879
0.882748
0.885457
0.885999
0.884373
0.880583
0.874638
0.866552
0.856346
0.844044
0.829677
0.813279
0.794891
0.774558
0.75233
0.72826
0.702408
0.674837
0.645615
0.614813
0.582506
0.548774
0.513699
0.477367
0.439866
0.401289
0.36173
0.321286
0.280056
0.23814
0.195642
0.152665
0.109314
0.0656955
0.0219164
-0.0219164
-0.0656955
-0.109314
-0.152665
-0.195642
-0.23814
-0.280056
-0.321286
-0.36173
-0.401289
-0.439866
-0.477367
-0.513699
-0.548774
-0.582506
-0.614813
-0.645615
-0.674837
-0.702408
-0.72826
-0.75233
-0.774558
-0.794891
-0.813279
-0.829677
-0.844044
-0.856346
-0.866552
-0.874638
-0.880583
-0.884373
-0.885999
-0.885457
-0.882748
-0.877879
-0.870861
-0.861713
-0.850455
-0.837117
-0.821729
-0.804331
-0.784965
-0.763677
-0.740521
-0.715553
-0.688833
-0.660428
-0.630407
-0.598843
-0.565813
-0.531399
-0.495684
-0.458757
-0.420706
-0.381627
-0.341613
-0.300763
-0.259177
-0.216957
-0.174207
-0.131029
-0.0875314
-0.0438193
0
0
0.0449004
0.0896909
0.134262
0.178504
0.22231
0.265572
0.308183
0.350041
0.391042
0.431086
0.470075
0.507914
0.544509
0.579773
0.613617
0.64596
0.676722
0.705828
0.733207
0.758791
0.782519
0.804331
0.824176
0.842003
0.85777
0.871438
0.882973
0.892347
0.899538
0.904527
0.907303
0.907858
0.906192
0.902309
0.896217
0.887932
0.877474
0.864868
0.850146
0.833344
0.814503
0.793668
0.770891
0.746227
0.719738
0.691487
0.661543
0.629981
0.596878
0.562313
0.526373
0.489144
0.450718
0.41119
0.370655
0.329213
0.286965
0.244016
0.200469
0.156431
0.112011
0.0673163
0.0224571
-0.0224571
-0.0673163
-0.112011
-0.156431
-0.200469
-0.244016
-0.286965
-0.329213
-0.370655
-0.41119
-0.450718
-0.489144
-0.526373
-0.562313
-0.596878
-0.629981
-0.661543
-0.691487
-0.719738
-0.746227
-0.770891
-0.793668
-0.814503
-0.833344
-0.850146
-0.864868
-0.877474
-0.887932
-0.896217
-0.902309
-0.906192
-0.907858
-0.907303
-0.904527
-0.899538
-0.892347
-0.882973
-0.871438
-0.85777
-0.842003
-0.824176
-0.804331
-0.782519
-0.758791
-0.733207
-0.705828
-0.676722
-0.64596
-0.613617
-0.579773
-0.544509
-0.507914
-0.470075
-0.431086
-0.391042
-0.350041
-0.308183
-0.265572
-0.22231
-0.178504
-0.134262
-0.0896909
-0.0449004
0
0
0.0458716
0.091631
0.137166
0.182366
0.227119
0.271316
0.31485
0.357613
0.3995
0.440411
0.480243
0.5189
0.556288
0.592314
0.62689
0.659932
0.69136
0.721095
0.749066
0.775204
0.799445
0.821729
0.842003
0.860216
0.876324
0.890287
0.902072
0.911649
0.918995
0.924093
0.926928
0.927496
0.925794
0.921826
0.915602
0.907138
0.896454
0.883576
0.868536
0.85137
0.832121
0.810835
0.787566
0.762369
0.735306
0.706444
0.675853
0.643608
0.609788
0.574476
0.537758
0.499724
0.460468
0.420084
0.378672
0.336334
0.293173
0.249294
0.204805
0.159815
0.114434
0.0687724
0.0229428
-0.0229428
-0.0687724
-0.114434
-0.159815
-0.204805
-0.249294
-0.293173
-0.336334
-0.378672
-0.420084
-0.460468
-0.499724
-0.537758
-0.574476
-0.609788
-0.643608
-0.675853
-0.706444
-0.735306
-0.762369
-0.787566
-0.810835
-0.832121
-0.85137
-0.868536
-0.883576
-0.896454
-0.907138
-0.915602
-0.921826
-0.925794
-0.927496
-0.926928
-0.924093
-0.918995
-0.911649
-0.902072
-0.890287
-0.876324
-0.860216
-0.842003
-0.821729
-0.799445
-0.775204
-0.749066
-0.721095
-0.69136
-0.659932
-0.62689
-0.592314
-0.556288
-0.5189
-0.480243
-0.440411
-0.3995
-0.357613
-0.31485
-0.271316
-0.227119
-0.182366
-0.137166
-0.091631
-0.0458716
0
0
0.0467306
0.0933468
0.139735
0.18578
0.231372
0.276397
0.320745
0.364309
0.406981
0.448657
0.489236
0.528617
0.566704
0.603405
0.638629
0.67229
0.704306
0.734598
0.763093
0.78972
0.814415
0.837117
0.85777
0.876324
0.892733
0.906958
0.918964
0.92872
0.936204
0.941397
0.944286
0.944864
0.94313
0.939088
0.932747
0.924125
0.91324
0.900121