# vtk DataFile Version 3.0
Scalar Field Data
ASCII
DATASET STRUCTURED_POINTS
DIMENSIONS 64 64 1
ORIGIN 0 0 0
SPACING 0.015873 0.015873 1
POINT_DATA 4096
SCALARS scalars double
LOOKUP_TABLE default
0
0
0
0
0
0
0
0
0
0
0
0
0
0
0
0
0
0
0
0
0
0
0
0
0
0
0
0
0
0
0
0
0
0
0
0
0
0
0
0
0
0
0
0
0
0
0
0
0
0
0
0
0
0
0
0
0
0
0
0
0
0
0
0
0
0.00992191
0.0197452
0.0293723
0.0387074
0.0476579
0.0561347
0.0640536
0.071336
0.0779093
0.0837084
0.0886755
0.0927614
0.0959253
0.0981359
0.0993711
0.0996188
0.0988764
0.0971514
0.0944608
0.0908314
0.0862992
0.0809095
0.0747155
0.0677791
0.060169
0.0519609
0.0432364
0.0340822
0.0245893
0.014852
0.00496713
-0.00496713
-0.014852
-0.0245893
-0.0340822
-0.0432364
-0.0519609
-0.060169
-0.0677791
-0.0747155
-0.0809095
-0.0862992
-0.0908314
-0.0944608
-0.0971514
-0.0988764
-0.0996188
-0.0993711
-0.0981359
-0.0959253
-0.0927614
-0.0886755
-0.0837084
-0.0779093
-0.071336
-0.0640536
-0.0561347
-0.0476579
-0.0387074
-0.0293723
-0.0197452
-0.00992191
0
0
0.0197452
0.0392942
0.0584527
0.0770302
0.0948422
0.111712
0.127471
0.141963
0.155044
0.166585
0.17647
0.184601
0.190897
0.195296
0.197755
0.198248
0.19677
0.193337
0.187983
0.18076
0.171741
0.161015
0.148689
0.134885
0.11974
0.103405
0.0860431
0.0678257
0.0489343
0.0295565
0.0098849
-0.0098849
-0.0295565
-0.0489343
-0.0678257
-0.0860431
-0.103405
-0.11974
-0.134885
-0.148689
-0.161015
-0.171741
-0.18076
-0.187983
-0.193337
-0.19677
-0.198248
-0.197755
-0.195296
-0.190897
-0.184601
-0.17647
-0.166585
-0.155044
-0.141963
-0.127471
-0.111712
-0.0948422
-0.0770302
-0.0584527
-0.0392942
-0.0197452
0
0
0.0293723
0.0584527
0.0869521
0.114587
0.141084
0.166178
0.189621
0.211179
0.230639
0.247806
0.26251
0.274606
0.283972
0.290516
0.294173
0.294906
0.292708
0.287602
0.279636
0.268892
0.255476
0.23952
0.221184
0.200649
0.178121
0.153822
0.127995
0.100895
0.0727929
0.0439671
0.0147044
-0.0147044
-0.0439671
-0.0727929
-0.100895
-0.127995
-0.153822
-0.178121
-0.200649
-0.221184
-0.23952
-0.255476
-0.268892
-0.279636
-0.287602
-0.292708
-0.294906
-0.294173
-0.290516
-0.283972
-0.274606
-0.26251
-0.247806
-0.230639
-0.211179
-0.189621
-0.166178
-0.141084
-0.114587
-0.0869521
-0.0584527
-0.0293723
0
0
0.0387074
0.0770302
0.114587
0.151006
0.185923
0.218993
0.249887
0.278296
0.30394
0.326564
0.345942
0.361881
0.374224
0.382848
0.387667
0.388634
0.385737
0.379008
0.368511
0.354352
0.336671
0.315645
0.291481
0.26442
0.234732
0.20271
0.168674
0.132962
0.095928
0.0579408
0.0193778
-0.0193778
-0.0579408
-0.095928
-0.132962
-0.168674
-0.20271
-0.234732
-0.26442
-0.291481
-0.315645
-0.336671
-0.354352
-0.368511
-0.379008
-0.385737
-0.388634
-0.387667
-0.382848
-0.374224
-0.361881
-0.345942
-0.326564
-0.30394
-0.278296
-0.249887
-0.218993
-0.185923
-0.151006
-0.114587
-0.0770302
-0.0387074
0
0
0.0476579
0.0948422
0.141084
0.185923
0.228915
0.269632
0.307669
0.342648
0.374222
0.402076
0.425935
0.44556
0.460758
0.471376
0.477309
0.478499
0.474933
0.466647
0.453723
0.43629
0.414521
0.388632
0.358881
0.325563
0.28901
0.249584
0.207677
0.163707
0.11811
0.0713387
0.0238586
-0.0238586
-0.0713387
-0.11811
-0.163707
-0.207677
-0.249584
-0.28901
-0.325563
-0.358881
-0.388632
-0.414521
-0.43629
-0.453723
-0.466647
-0.474933
-0.478499
-0.477309
-0.471376
-0.460758
-0.44556
-0.425935
-0.402076
-0.374222
-0.342648
-0.307669
-0.269632
-0.228915
-0.185923
-0.141084
-0.0948422
-0.0476579
0
0
0.0561347
0.111712
0.166178
0.218993
0.269632
0.317591
0.362393
0.403594
0.440784
0.473593
0.501695
0.524811
0.542712
0.555219
0.562207
0.563608
0.559408
0.549648
0.534426
0.513892
0.488251
0.457757
0.422714
0.38347
0.340415
0.293977
0.244617
0.192825
0.139118
0.0840276
0.0281023
-0.0281023
-0.0840276
-0.139118
-0.192825
-0.244617
-0.293977
-0.340415
-0.38347
-0.422714
-0.457757
-0.488251
-0.513892
-0.534426
-0.549648
-0.559408
-0.563608
-0.562207
-0.555219
-0.542712
-0.524811
-0.501695
-0.473593
-0.440784
-0.403594
-0.362393
-0.317591
-0.269632
-0.218993
-0.166178
-0.111712
-0.0561347
0
0
0.0640536
0.127471
0.189621
0.249887
0.307669
0.362393
0.413516
0.460529
0.502965
0.540403
0.572469
0.598847
0.619272
0.633543
0.641518
0.643117
0.638324
0.627187
0.609817
0.586387
0.557129
0.522333
0.482347
0.437566
0.388437
0.335448
0.279125
0.220027
0.158743
0.0958814
0.0320667
-0.0320667
-0.0958814
-0.158743
-0.220027
-0.279125
-0.335448
-0.388437
-0.437566
-0.482347
-0.522333
-0.557129
-0.586387
-0.609817
-0.627187
-0.638324
-0.643117
-0.641518
-0.633543
-0.619272
-0.598847
-0.572469
-0.540403
-0.502965
-0.460529
-0.413516
-0.362393
-0.307669
-0.249887
-0.189621
-0.127471
-0.0640536
0
0
0.071336
0.141963
0.211179
0.278296
0.342648
0.403594
0.460529
0.512887
0.560148
0.601842
0.637554
0.66693
0.689678
0.705571
0.714453
0.716233
0.710896
0.698493
0.679148
0.653054
0.620469
0.581718
0.537185
0.487314
0.432599
0.373585
0.310859
0.245042
0.176791
0.106782
0.0357124
-0.0357124
-0.106782
-0.176791
-0.245042
-0.310859
-0.373585
-0.432599
-0.487314
-0.537185
-0.581718
-0.620469
-0.653054
-0.679148
-0.698493
-0.710896
-0.716233
-0.714453
-0.705571
-0.689678
-0.66693
-0.637554
-0.601842
-0.560148
-0.512887
-0.460529
-0.403594
-0.342648
-0.278296
-0.211179
-0.141963
-0.071336
0
0
0.0779093
0.155044
0.230639
0.30394
0.374222
0.440784
0.502965
0.560148
0.611764
0.657299
0.696302
0.728385
0.753229
0.770587
0.780287
0.782232
0.776402
0.762857
0.741729
0.71323
0.677643
0.635321
0.586685
0.532218
0.472462
0.40801
0.339503
0.267622
0.193081
0.116622
0.0390032
-0.0390032
-0.116622
-0.193081
-0.267622
-0.339503
-0.40801
-0.472462
-0.532218
-0.586685
-0.635321
-0.677643
-0.71323
-0.741729
-0.762857
-0.776402
-0.782232
-0.780287
-0.770587
-0.753229
-0.728385
-0.696302
-0.657299
-0.611764
-0.560148
-0.502965
-0.440784
-0.374222
-0.30394
-0.230639
-0.155044
-0.0779093
0
0
0.0837084
0.166585
0.247806
0.326564
0.402076
0.473593
0.540403
0.601842
0.657299
0.706224
0.748131
0.782602
0.809295
0.827945
0.838366
0.840456
0.834193
0.819639
0.796939
0.766319
0.728082
0.68261
0.630354
0.571833
0.507629
0.43838
0.364774
0.287542
0.207453
0.125302
0.0419063
-0.0419063
-0.125302
-0.207453
-0.287542
-0.364774
-0.43838
-0.507629
-0.571833
-0.630354
-0.68261
-0.728082
-0.766319
-0.796939
-0.819639
-0.834193
-0.840456
-0.838366
-0.827945
-0.809295
-0.782602
-0.748131
-0.706224
-0.657299
-0.601842
-0.540403
-0.473593
-0.402076
-0.326564
-0.247806
-0.166585
-0.0837084
0
0
0.0886755
0.17647
0.26251
0.345942
0.425935
0.501695
0.572469
0.637554
0.696302
0.748131
0.792524
0.82904
0.857317
0.877074
0.888114
0.890327
0.883692
0.868275
0.844228
0.811791
0.771286
0.723115
0.667758
0.605765
0.537751
0.464392
0.386419
0.304605
0.219763
0.132738
0.044393
-0.044393
-0.132738
-0.219763
-0.304605
-0.386419
-0.464392
-0.537751
-0.605765
-0.667758
-0.723115
-0.771286
-0.811791
-0.844228
-0.868275
-0.883692
-0.890327
-0.888114
-0.877074
-0.857317
-0.82904
-0.792524
-0.748131
-0.696302
-0.637554
-0.572469
-0.501695
-0.425935
-0.345942
-0.26251
-0.17647
-0.0886755
0
0
0.0927614
0.184601
0.274606
0.361881
0.44556
0.524811
0.598847
0.66693
0.728385
0.782602
0.82904
0.867239
0.896819
0.917486
0.929035
0.93135
0.92441
0.908282
0.883127
0.849195
0.806824
0.756434
0.698526
0.633676
0.562528
0.48579
0.404223
0.31864
0.229889
0.138854
0.0464384
-0.0464384
-0.138854
-0.229889
-0.31864
-0.404223
-0.48579
-0.562528
-0.633676
-0.698526
-0.756434
-0.806824
-0.849195
-0.883127
-0.908282
-0.92441
-0.93135
-0.929035
-0.917486
-0.896819
-0.867239
-0.82904
-0.782602
-0.728385
-0.66693
-0.598847
-0.524811
-0.44556
-0.361881
-0.274606
-0.184601
-0.0927614
0
0
0.0959253
0.190897
0.283972
0.374224
0.460758
0.542712
0.619272
0.689678
0.753229
0.809295
0.857317
0.896819
0.927408
0.94878
0.960723
0.963117
0.95594
0.939262
0.913249
0.87816
0.834343
0.782234
0.722352
0.65529
0.581715
0.502359
0.418011
0.329508
0.23773
0.14359
0.0480223
-0.0480223
-0.14359
-0.23773
-0.329508
-0.418011
-0.502359
-0.581715
-0.65529
-0.722352
-0.782234
-0.834343
-0.87816
-0.913249
-0.939262
-0.95594
-0.963117
-0.960723
-0.94878
-0.927408
-0.896819
-0.857317
-0.809295
-0.753229
-0.689678
-0.619272
-0.542712
-0.460758
-0.374224
-0.283972
-0.190897
-0.0959253
0
0
0.0981359
0.195296
0.290516
0.382848
0.471376
0.555219
0.633543
0.705571
0.770587
0.827945
0.877074
0.917486
0.94878
0.970644
0.982862
0.985312
0.977969
0.960907
0.934294
0.898397
0.85357
0.800261
0.738998
0.670391
0.595121
0.513936
0.427644
0.337101
0.243209
0.146899
0.049129
-0.049129
-0.146899
-0.243209
-0.337101
-0.427644
-0.513936
-0.595121
-0.670391
-0.738998
-0.800261
-0.85357
-0.898397
-0.934294
-0.960907
-0.977969
-0.985312
-0.982862
-0.970644
-0.94878
-0.917486
-0.877074
-0.827945
-0.770587
-0.705571
-0.633543
-0.555219
-0.471376
-0.382848
-0.290516
-0.195296
-0.0981359
0
0
0.0993711
0.197755
0.294173
0.387667
0.477309
0.562207
0.641518
0.714453
0.780287
0.838366
0.888114
0.929035
0.960723
0.982862
0.995234
0.997714
0.990279
0.973002
0.946055
0.909705
0.864315
0.810334
0.7483
0.678829
0.602612
0.520405
0.433027
0.341344
0.24627
0.148748
0.0497474
-0.0497474
-0.148748
-0.24627
-0.341344
-0.433027
-0.520405
-0.602612
-0.678829
-0.7483
-0.810334
-0.864315
-0.909705
-0.946055
-0.973002
-0.990279
-0.997714
-0.995234
-0.982862
-0.960723
-0.929035
-0.888114
-0.838366
-0.780287
-0.714453
-0.641518
-0.562207
-0.477309
-0.387667
-0.294173
-0.197755
-0.0993711
0
0
0.0996188
0.198248
0.294906
0.388634
0.478499
0.563608
0.643117
0.716233
0.782232
0.840456
0.890327
0.93135
0.963117
0.985312
0.997714
1.0002
0.992747
0.975427
0.948413
0.911972
0.866469
0.812354
0.750165
0.680521
0.604113
0.521702
0.434106
0.342195
0.246884
0.149119
0.0498714
-0.0498714
-0.149119
-0.246884
-0.342195
-0.434106
-0.521702
-0.604113
-0.680521
-0.750165
-0.812354
-0.866469
-0.911972
-0.948413
-0.975427
-0.992747
-1.0002
-0.997714
-0.985312
-0.963117
-0.93135
-0.890327
-0.840456
-0.782232
-0.716233
-0.643117
-0.563608
-0.478499
-0.388634
-0.294906
-0.198248
-0.0996188
0
0
0.0988764
0.19677
0.292708
0.385737
0.474933
0.559408
0.638324
0.710896
0.776402
0.834193
0.883692
0.92441
0.95594
0.977969
0.990279
0.992747
0.985349
0.968158
0.941345
0.905176
0.860012
0.8063
0.744575
0.675449
0.599611
0.517814
0.430871
0.339645
0.245044
0.148007
0.0494997
-0.0494997
-0.148007
-0.245044
-0.339645
-0.430871
-0.517814
-0.599611
-0.675449
-0.744575
-0.8063
-0.860012
-0.905176
-0.941345
-0.968158
-0.985349
-0.992747
-0.990279
-0.977969
-0.95594
-0.92441
-0.883692
-0.834193
-0.776402
-0.710896
-0.638324
-0.559408
-0.474933
-0.385737
-0.292708
-0.19677
-0.0988764
0
0
0.0971514
0.193337
0.287602
0.379008
0.466647
0.549648
0.627187
0.698493
0.762857
0.819639
0.868275
0.908282
0.939262
0.960907
0.973002
0.975427
0.968158
0.951267
0.924921
0.889384
0.845007
0.792232
0.731584
0.663665
0.58915
0.50878
0.423353
0.333719
0.240769
0.145425
0.0486361
-0.0486361
-0.145425
-0.240769
-0.333719
-0.423353
-0.50878
-0.58915
-0.663665
-0.731584
-0.792232
-0.845007
-0.889384
-0.924921
-0.951267
-0.968158
-0.975427
-0.973002
-0.960907
-0.939262
-0.908282
-0.868275
-0.819639
-0.762857
-0.698493
-0.627187
-0.549648
-0.466647
-0.379008
-0.287602
-0.193337
-0.0971514
0
0
0.0944608
0.187983
0.279636
0.368511
0.453723
0.534426
0.609817
0.679148
0.741729
0.796939
0.844228
0.883127
0.913249
0.934294
0.946055
0.948413
0.941345
0.924921
0.899306
0.864752
0.821605
0.770292
0.711323
0.645285
0.572834
0.494689
0.411629
0.324477
0.234101
0.141398
0.0472892
-0.0472892
-0.141398
-0.234101
-0.324477
-0.411629
-0.494689
-0.572834
-0.645285
-0.711323
-0.770292
-0.821605
-0.864752
-0.899306
-0.924921
-0.941345
-0.948413
-0.946055
-0.934294
-0.913249
-0.883127
-0.844228
-0.796939
-0.741729
-0.679148
-0.609817
-0.534426
-0.453723
-0.368511
-0.279636
-0.187983
-0.0944608
0
0
0.0908314
0.18076
0.268892
0.354352
0.43629
0.513892
0.586387
0.653054
0.71323
0.766319
0.811791
0.849195
0.87816
0.898397
0.909705
0.911972
0.905176
0.889384
0.864752
0.831527
0.790037
0.740695
0.683992
0.620492
0.550824
0.475682
0.395813
0.31201
0.225106
0.135965
0.0454722
-0.0454722
-0.135965
-0.225106
-0.31201
-0.395813
-0.475682
-0.550824
-0.620492
-0.683992
-0.740695
-0.790037
-0.831527
-0.864752
-0.889384
-0.905176
-0.911972
-0.909705
-0.898397
-0.87816
-0.849195
-0.811791
-0.766319
-0.71323
-0.653054
-0.586387
-0.513892
-0.43629
-0.354352
-0.268892
-0.18076
-0.0908314
0
0
0.0862992
0.171741
0.255476
0.336671
0.414521
0.488251
0.557129
0.620469
0.677643
0.728082
0.771286
0.806824
0.834343
0.85357
0.864315
0.866469
0.860012
0.845007
0.821605
0.790037
0.750617
0.703738
0.649864
0.589532
0.52334
0.451948
0.376064
0.296442
0.213874
0.129181
0.0432033
-0.0432033
-0.129181
-0.213874
-0.296442
-0.376064
-0.451948
-0.52334
-0.589532
-0.649864
-0.703738
-0.750617
-0.790037
-0.821605
-0.845007
-0.860012
-0.866469
-0.864315
-0.85357
-0.834343
-0.806824
-0.771286
-0.728082
-0.677643
-0.620469
-0.557129
-0.488251
-0.414521
-0.336671
-0.255476
-0.171741
-0.0862992
0
0
0.0809095
0.161015
0.23952
0.315645
0.388632
0.457757
0.522333
0.581718
0.635321
0.68261
0.723115
0.756434
0.782234
0.800261
0.810334
0.812354
0.8063
0.792232
0.770292
0.740695
0.703738
0.659786
0.609277
0.552713
0.490655
0.423721
0.352577
0.277928
0.200517
0.121113
0.0405051
-0.0405051
-0.121113
-0.200517
-0.277928
-0.352577
-0.423721
-0.490655
-0.552713
-0.609277
-0.659786
-0.703738
-0.740695
-0.770292
-0.792232
-0.8063
-0.812354
-0.810334
-0.800261
-0.782234
-0.756434
-0.723115
-0.68261
-0.635321
-0.581718
-0.522333
-0.457757
-0.388632
-0.315645
-0.23952
-0.161015
-0.0809095
0
0
0.0747155
0.148689
0.221184
0.291481
0.358881
0.422714
0.482347
0.537185
0.586685
0.630354
0.667758
0.698526
0.722352
0.738998
0.7483
0.750165
0.744575
0.731584
0.711323
0.683992
0.649864
0.609277
0.562635
0.5104
0.453094
0.391284
0.325586
0.256651
0.185166
0.111841
0.0374043
-0.0374043
-0.111841
-0.185166
-0.256651
-0.325586
-0.391284
-0.453094
-0.5104
-0.562635
-0.609277
-0.649864
-0.683992
-0.711323
-0.731584
-0.744575
-0.750165
-0.7483
-0.738998
-0.722352
-0.698526
-0.667758
-0.630354
-0.586685
-0.537185
-0.482347
-0.422714
-0.358881
-0.291481
-0.221184
-0.148689
-0.0747155
0
0
0.0677791
0.134885
0.200649
0.26442
0.325563
0.38347
0.437566
0.487314
0.532218
0.571833
0.605765
0.633676
0.65529
0.670391
0.678829
0.680521
0.675449
0.663665
0.645285
0.620492
0.589532
0.552713
0.5104
0.463016
0.411029
0.354958
0.295359
0.232824
0.167976
0.101458
0.0339317
-0.0339317
-0.101458
-0.167976
-0.232824
-0.295359
-0.354958
-0.411029
-0.463016
-0.5104
-0.552713
-0.589532
-0.620492
-0.645285
-0.663665
-0.675449
-0.680521
-0.678829
-0.670391
-0.65529
-0.633676
-0.605765
-0.571833
-0.532218
-0.487314
-0.437566
-0.38347
-0.325563
-0.26442
-0.200649
-0.134885
-0.0677791
0
0
0.060169
0.11974
0.178121
0.234732
0.28901
0.340415
0.388437
0.432599
0.472462
0.507629
0.537751
0.562528
0.581715
0.595121
0.602612
0.604113
0.599611
0.58915
0.572834
0.550824
0.52334
0.490655
0.453094
0.411029
0.36488
0.315104
0.262197
0.206683
0.149116
0.0900664
0.0301219
-0.0301219
-0.0900664
-0.149116
-0.206683
-0.262197
-0.315104
-0.36488
-0.411029
-0.453094
-0.490655
-0.52334
-0.550824
-0.572834
-0.58915
-0.599611
-0.604113
-0.602612
-0.595121
-0.581715
-0.562528
-0.537751
-0.507629
-0.472462
-0.432599
-0.388437
-0.340415
-0.28901
-0.234732
-0.178121
-0.11974
-0.060169
0
0
0.0519609
0.103405
0.153822
0.20271
0.249584
0.293977
0.335448
0.373585
0.40801
0.43838
0.464392
0.48579
0.502359
0.513936
0.520405
0.521702
0.517814
0.50878
0.494689
0.475682
0.451948
0.423721
0.391284
0.354958
0.315104
0.272118
0.226428
0.178488
0.128774
0.0777798
0.0260128
-0.0260128
-0.0777798
-0.128774
-0.178488
-0.226428
-0.272118
-0.315104
-0.354958
-0.391284
-0.423721
-0.451948
-0.475682
-0.494689
-0.50878
-0.517814
-0.521702
-0.520405
-0.513936
-0.502359
-0.48579
-0.464392
-0.43838
-0.40801
-0.373585
-0.335448
-0.293977
-0.249584
-0.20271
-0.153822
-0.103405
-0.0519609
0
0
0.0432364
0.0860431
0.127995
0.168674
0.207677
0.244617
0.279125
0.310859
0.339503
0.364774
0.386419
0.404223
0.418011
0.427644
0.433027
0.434106
0.430871
0.423353
0.411629
0.395813
0.376064
0.352577
0.325586
0.295359
0.262197
0.226428
0.18841
0.148519
0.107152
0.0647202
0.0216451
-0.0216451
-0.0647202
-0.107152
-0.148519
-0.18841
-0.226428
-0.262197
-0.295359
-0.325586
-0.352577
-0.376064
-0.395813
-0.411629
-0.423353
-0.430871
-0.434106
-0.433027
-0.427644
-0.418011
-0.404223
-0.386419
-0.364774
-0.339503
-0.310859
-0.279125
-0.244617
-0.207677
-0.168674
-0.127995
-0.0860431
-0.0432364
0
0
0.0340822
0.0678257
0.100895
0.132962
0.163707
0.192825
0.220027
0.245042
0.267622
0.287542
0.304605
0.31864
0.329508
0.337101
0.341344
0.342195
0.339645
0.333719
0.324477
0.31201
0.296442
0.277928
0.256651
0.232824
0.206683
0.178488
0.148519
0.117074
0.0844655
0.0510174
0.0170623
-0.0170623
-0.0510174
-0.0844655
-0.117074
-0.148519
-0.178488
-0.206683
-0.232824
-0.256651
-0.277928
-0.296442
-0.31201
-0.324477
-0.333719
-0.339645
-0.342195
-0.341344
-0.337101
-0.329508
-0.31864
-0.304605
-0.287542
-0.267622
-0.245042
-0.220027
-0.192825
-0.163707
-0.132962
-0.100895
-0.0678257
-0.0340822
0
0
0.0245893
0.0489343
0.0727929
0.095928
0.11811
0.139118
0.158743
0.176791
0.193081
0.207453
0.219763
0.229889
0.23773
0.243209
0.24627
0.246884
0.245044
0.240769
0.234101
0.225106
0.213874
0.200517
0.185166
0.167976
0.149116
0.128774
0.107152
0.0844655
0.0609393
0.0368075
0.01231
-0.01231
-0.0368075
-0.0609393
-0.0844655
-0.107152
-0.128774
-0.149116
-0.167976
-0.185166
-0.200517
-0.213874
-0.225106
-0.234101
-0.240769
-0.245044
-0.246884
-0.24627
-0.243209
-0.23773
-0.229889
-0.219763
-0.207453
-0.193081
-0.176791
-0.158743
-0.139118
-0.11811
-0.095928
-0.0727929
-0.0489343
-0.0245893
0
0
0.014852
0.0295565
0.0439671
0.0579408
0.0713387
0.0840276
0.0958814
0.106782
0.116622
0.125302
0.132738
0.138854
0.14359
0.146899
0.148748
0.149119
0.148007
0.145425
0.141398
0.135965
0.129181
0.121113
0.111841
0.101458
0.0900664
0.0777798
0.0647202
0.0510174
0.0368075
0.0222319
0.00743526
-0.00743526
-0.0222319
-0.0368075
-0.0510174
-0.0647202
-0.0777798
-0.0900664
-0.101458
-0.111841
-0.121113
-0.129181
-0.135965
-0.141398
-0.145425
-0.148007
-0.149119
-0.148748
-0.146899
-0.14359
-0.138854
-0.132738
-0.125302
-0.116622
-0.106782
-0.0958814
-0.0840276
-0.0713387
-0.0579408
-0.0439671
-0.0295565
-0.014852
0
0
0.00496713
0.0098849
0.0147044
0.0193778
0.0238586
0.0281023
0.0320667
0.0357124
0.0390032
0.0419063
0.044393
0.0464384
0.0480223
0.049129
0.0497474
0.0498714
0.0494997
0.0486361
0.0472892
0.0454722
0.0432033
0.0405051
0.0374043
0.0339317
0.0301219
0.0260128
0.0216451
0.0170623
0.01231
0.00743526
0.00248666
-0.00248666
-0.00743526
-0.01231
-0.0170623
-0.0216451
-0.0260128
-0.0301219
-0.0339317
-0.0374043
-0.0405051
-0.0432033
-0.0454722
-0.0472892
-0.0486361
-0.0494997
-0.0498714
-0.0497474
-0.049129
-0.0480223
-0.0464384
-0.044393
-0.0419063
-0.0390032
-0.0357124
-0.0320667
-0.0281023
-0.0238586
-0.0193778
-0.0147044
-0.0098849
-0.00496713
0
0
-0.00496713
-0.0098849
-0.0147044
-0.0193778
-0.0238586
-0.0281023
-0.0320667
-0.0357124
-0.0390032
-0.0419063
-0.044393
-0.0464384
-0.0480223
-0.049129
-0.0497474
-0.0498714
-0.0494997
-0.0486361
-0.0472892
-0.0454722
-0.0432033
-0.0405051
-0.0374043
-0.0339317
-0.0301219
-0.0260128
-0.0216451
-0.0170623
-0.01231
-0.00743526
-0.00248666
0.00248666
0.00743526
0.01231
0.0170623
0.0216451
0.0260128
0.0301219
0.0339317
0.0374043
0.0405051
0.0432033
0.0454722
0.0472892
0.0486361
0.0494997
0.0498714
0.0497474
0.049129
0.0480223
0.0464384
0.044393
0.0419063
0.0390032
0.0357124
0.0320667
0.0281023
0.0238586
0.0193778
0.0147044
0.0098849
0.00496713
0
0
-0.014852
-0.0295565
-0.0439671
-0.0579408
-0.0713387
-0.0840276
-0.0958814
-0.106782
-0.116622
-0.125302
-0.132738
-0.138854
-0.14359
-0.146899
-0.148748
-0.149119
-0.148007
-0.145425
-0.141398
-0.135965
-0.129181
-0.121113
-0.111841
-0.101458
-0.0900664
-0.0777798
-0.0647202
-0.0510174
-0.0368075
-0.0222319
-0.00743526
0.00743526
0.0222319
0.0368075
0.0510174
0.0647202
0.0777798
0.0900664
0.101458
0.111841
0.121113
0.129181
0.135965
0.141398
0.145425
0.148007
0.149119
0.148748
0.146899
0.14359
0.138854
0.132738
0.125302
0.116622
0.106782
0.0958814
0.0840276
0.0713387
0.0579408
0.0439671
0.0295565
0.014852
0
0
-0.0245893
-0.0489343
-0.0727929
-0.095928
-0.11811
-0.139118
-0.158743
-0.176791
-0.193081
-0.207453
-0.219763
-0.229889
-0.23773
-0.243209
-0.24627
-0.246884
-0.245044
-0.240769
-0.234101
-0.225106
-0.213874
-0.200517
-0.185166
-0.167976
-0.149116
-0.128774
-0.107152
-0.0844655
-0.0609393
-0.0368075
-0.01231
0.01231
0.0368075
0.0609393
0.0844655
0.107152
0.128774
0.149116
0.167976
0.185166
0.200517
0.213874
0.225106
0.234101
0.240769
0.245044
0.246884
0.24627
0.243209
0.23773
0.229889
0.219763
0.207453
0.193081
0.176791
0.158743
0.139118
0.11811
0.095928
0.0727929
0.0489343
0.0245893
0
0
-0.0340822
-0.0678257
-0.100895
-0.132962
-0.163707
-0.192825
-0.220027
-0.245042
-0.267622
-0.287542
-0.304605
-0.31864
-0.329508
-0.337101
-0.341344
-0.342195
-0.339645
-0.333719
-0.324477
-0.31201
-0.296442
-0.277928
-0.256651
-0.232824
-0.206683
-0.178488
-0.148519
-0.117074
-0.0844655
-0.0510174
-0.0170623
0.0170623
0.0510174
0.0844655
0.117074
0.148519
0.178488
0.206683
0.232824
0.256651
0.277928
0.296442
0.31201
0.324477
0.333719
0.339645
0.342195
0.341344
0.337101
0.329508
0.31864
0.304605
0.287542
0.267622
0.245042
0.220027
0.192825
0.163707
0.132962
0.100895
0.0678257
0.0340822
0
0
-0.0432364
-0.0860431
-0.127995
-0.168674
-0.207677
-0.244617
-0.279125
-0.310859
-0.339503
-0.364774
-0.386419
-0.404223
-0.418011
-0.427644
-0.433027
-0.434106
-0.430871
-0.423353
-0.411629
-0.395813
-0.376064
-0.352577
-0.325586
-0.295359
-0.262197
-0.226428
-0.18841
-0.148519
-0.107152
-0.0647202
-0.0216451
0.0216451
0.0647202
0.107152
0.148519
0.18841
0.226428
0.262197
0.295359
0.325586
0.352577
0.376064
0.395813
0.411629
0.423353
0.430871
0.434106
0.433027
0.427644
0.418011
0.404223
0.386419
0.364774
0.339503
0.310859
0.279125
0.244617
0.207677
0.168674
0.127995
0.0860431
0.0432364
0
0
-0.0519609
-0.103405
-0.153822
-0.20271
-0.249584
-0.293977
-0.335448
-0.373585
-0.40801
-0.43838
-0.464392
-0.48579
-0.502359
-0.513936
-0.520405
-0.521702
-0.517814
-0.50878
-0.494689
-0.475682
-0.451948
-0.423721
-0.391284
-0.354958
-0.315104
-0.272118
-0.226428
-0.178488
-0.128774
-0.0777798
-0.0260128
0.0260128
0.0777798
0.128774
0.178488
0.226428
0.272118
0.315104
0.354958
0.391284
0.423721
0.451948
0.475682
0.494689
0.50878
0.517814
0.521702
0.520405
0.513936
0.502359
0.48579
0.464392
0.43838
0.40801
0.373585
0.335448
0.293977
0.249584
0.20271
0.153822
0.103405
0.0519609
0
0
-0.060169
-0.11974
-0.178121
-0.234732
-0.28901
-0.340415
-0.388437
-0.432599
-0.472462
-0.507629
-0.537751
-0.562528
-0.581715
-0.595121
-0.602612
-0.604113
-0.599611
-0.58915
-0.572834
-0.550824
-0.52334
-0.490655
-0.453094
-0.411029
-0.36488
-0.315104
-0.262197
-0.206683
-0.149116
-0.0900664
-0.0301219
0.0301219
0.0900664
0.149116
0.206683
0.262197
0.315104
0.36488
0.411029
0.453094
0.490655
0.52334
0.550824
0.572834
0.58915
0.599611
0.604113
0.602612
0.595121
0.581715
0.562528
0.537751
0.507629
0.472462
0.432599
0.388437
0.340415
0.28901
0.234732
0.178121
0.11974
0.060169
0
0
-0.0677791
-0.134885
-0.200649
-0.26442
-0.325563
-0.38347
-0.437566
-0.487314
-0.532218
-0.571833
-0.605765
-0.633676
-0.65529
-0.670391
-0.678829
-0.680521
-0.675449
-0.663665
-0.645285
-0.620492
-0.589532
-0.552713
-0.5104
-0.463016
-0.411029
-0.354958
-0.295359
-0.232824
-0.167976
-0.101458
-0.0339317
0.0339317
0.101458
0.167976
0.232824
0.295359
0.354958
0.411029
0.463016
0.5104
0.552713
0.589532
0.620492
0.645285
0.663665
0.675449
0.680521
0.678829
0.670391
0.65529
0.633676
0.605765
0.571833
0.532218
0.487314
0.437566
0.38347
0.325563
0.26442
0.200649
0.134885
0.0677791
0
0
-0.0747155
-0.148689
-0.221184
-0.291481
-0.358881
-0.422714
-0.482347
-0.537185
-0.586685
-0.630354
-0.667758
-0.698526
-0.722352
-0.738998
-0.7483
-0.750165
-0.744575
-0.731584
-0.711323
-0.683992
-0.649864
-0.609277
-0.562635
-0.5104
-0.453094
-0.391284
-0.325586
-0.256651
-0.185166
-0.111841
-0.0374043
0.0374043
0.111841
0.185166
0.256651
0.325586
0.391284
0.453094
0.5104
0.562635
0.609277
0.649864
0.683992
0.711323
0.731584
0.744575
0.750165
0.7483
0.738998
0.722352
0.698526
0.667758
0.630354
0.586685
0.537185
0.482347
0.422714
0.358881
0.291481
0.221184
0.148689
0.0747155
0
0
-0.0809095
-0.161015
-0.23952
-0.315645
-0.388632
-0.457757
-0.522333
-0.581718
-0.635321
-0.68261
-0.723115
-0.756434
-0.782234
-0.800261
-0.810334
-0.812354
-0.8063
-0.792232
-0.770292
-0.740695
-0.703738
-0.659786
-0.609277
-0.552713
-0.490655
-0.423721
-0.352577
-0.277928
-0.200517
-0.121113
-0.0405051
0.0405051
0.121113
0.200517
0.277928
0.352577
0.423721
0.490655
0.552713
0.609277
0.659786
0.703738
0.740695
0.770292
0.792232
0.8063
0.812354
0.810334
0.800261
0.782234
0.756434
0.723115
0.68261
0.635321
0.581718
0.522333
0.457757
0.388632
0.315645
0.23952
0.161015
0.0809095
0
0
-0.0862992
-0.171741
-0.255476
-0.336671
-0.414521
-0.488251
-0.557129
-0.620469
-0.677643
-0.728082
-0.771286
-0.806824
-0.834343
-0.85357
-0.864315
-0.866469
-0.860012
-0.845007
-0.821605
-0.790037
-0.750617
-0.703738
-0.649864
-0.589532
-0.52334
-0.451948
-0.376064
-0.296442
-0.213874
-0.129181
-0.0432033
0.0432033
0.129181
0.213874
0.296442
0.376064
0.451948
0.52334
0.589532
0.649864
0.703738
0.750617
0.790037
0.821605
0.845007
0.860012
0.866469
0.864315
0.85357
0.834343
0.806824
0.771286
0.728082
0.677643
0.620469
0.557129
0.488251
0.414521
0.336671
0.255476
0.171741
0.0862992
0
0
-0.0908314
-0.18076
-0.268892
-0.354352
-0.43629
-0.513892
-0.586387
-0.653054
-0.71323
-0.766319
-0.811791
-0.849195
-0.87816
-0.898397
-0.909705
-0.911972
-0.905176
-0.889384
-0.864752
-0.831527
-0.790037
-0.740695
-0.683992
-0.620492
-0.550824
-0.475682
-0.395813
-0.31201
-0.225106
-0.135965
-0.0454722
0.0454722
0.135965
0.225106
0.31201
0.395813
0.475682
0.550824
0.620492
0.683992
0.740695
0.790037
0.831527
0.864752
0.889384
0.905176
0.911972
0.909705
0.898397
0.87816
0.849195
0.811791
0.766319
0.71323
0.653054
0.586387
0.513892
0.43629
0.354352
0.268892
0.18076
0.0908314
0
0
-0.0944608
-0.187983
-0.279636
-0.368511
-0.453723
-0.534426
-0.609817
-0.679148
-0.741729
-0.796939
-0.844228
-0.883127
-0.913249
-0.934294
-0.946055
-0.948413
-0.941345
-0.924921
-0.899306
-0.864752
-0.821605
-0.770292
-0.711323
-0.645285
-0.572834
-0.494689
-0.411629
-0.324477
-0.234101
-0.141398
-0.0472892
0.0472892
0.141398
0.234101
0.324477
0.411629
0.494689
0.572834
0.645285
0.711323
0.770292
0.821605
0.864752
0.899306
0.924921
0.941345
0.948413
0.946055
0.934294
0.913249
0.883127
0.844228
0.796939
0.741729
0.679148
0.609817
0.534426
0.453723
0.368511
0.279636
0.187983
0.0944608
0
0
-0.0971514
-0.193337
-0.287602
-0.379008
-0.466647
-0.549648
-0.627187
-0.698493
-0.762857
-0.819639
-0.868275
-0.908282
-0.939262
-0.960907
-0.973002
-0.975427
-0.968158
-0.951267
-0.924921
-0.889384
-0.845007
-0.792232
-0.731584
-0.663665
-0.58915
-0.50878
-0.423353
-0.333719
-0.240769
-0.145425
-0.0486361
0.0486361
0.145425
0.240769
0.333719
0.423353
0.50878
0.58915
0.663665
0.731584
0.792232
0.845007
0.889384
0.924921
0.951267
0.968158
0.975427
0.973002
0.960907
0.939262
0.908282
0.868275
0.819639
0.762857
0.698493
0.627187
0.549648
0.466647
0.379008
0.287602
0.193337
0.0971514
0
0
-0.0988764
-0.19677
-0.292708
-0.385737
-0.474933
-0.559408
-0.638324
-0.710896
-0.776402
-0.834193
-0.883692
-0.92441
-0.95594
-0.977969
-0.990279
-0.992747
-0.985349
-0.968158
-0.941345
-0.905176
-0.860012
-0.8063
-0.744575
-0.675449
-0.599611
-0.517814
-0.430871
-0.339645
-0.245044
-0.148007
-0.0494997
0.0494997
0.148007
0.245044
0.339645
0.430871
0.517814
0.599611
0.675449
0.744575
0.8063
0.860012
0.905176
0.941345
0.968158
0.985349
0.992747
0.990279
0.977969
0.95594
0.92441
0.883692
0.834193
0.776402
0.710896
0.638324
0.559408
0.474933
0.385737
0.292708
0.19677
0.0988764
0
0
-0.0996188
-0.198248
-0.294906
-0.388634
-0.478499
-0.563608
-0.643117
-0.716233
-0.782232
-0.840456
-0.890327
-0.93135
-0.963117
-0.985312
-0.997714
-1.0002
-0.992747
-0.975427
-0.948413
-0.911972
-0.866469
-0.812354
-0.750165
-0.680521
-0.604113
-0.521702
-0.434106
-0.342195
-0.246884
-0.149119
-0.0498714
0.0498714
0.149119
0.246884
0.342195
0.434106
0.521702
0.604113
0.680521
0.750165
0.812354
0.866469
0.911972
0.948413
0.975427
0.992747
1.0002
0.997714
0.985312
0.963117
0.93135
0.890327
0.840456
0.782232
0.716233
0.643117
0.563608
0.478499
0.388634
0.294906
0.198248
0.0996188
0
0
-0.0993711
-0.197755
-0.294173
-0.387667
-0.477309
-0.562207
-0.641518
-0.714453
-0.780287
-0.838366
-0.888114
-0.929035
-0.960723
-0.982862
-0.995234
-0.997714
-0.990279
-0.973002
-0.946055
-0.909705
-0.864315
-0.810334
-0.7483
-0.678829
-0.602612
-0.520405
-0.433027
-0.341344
-0.24627
-0.148748
-0.0497474
0.0497474
0.148748
0.24627
0.341344
0.433027
0.520405
0.602612
0.678829
0.7483
0.810334
0.864315
0.909705
0.946055
0.973002
0.990279
0.997714
0.995234
0.982862
0.960723
0.929035
0.888114
0.838366
0.780287
0.714453
0.641518
0.562207
0.477309
0.387667
0.294173
0.197755
0.0993711
0
0
-0.0981359
-0.195296
-0.290516
-0.382848
-0.471376
-0.555219
-0.633543
-0.705571
-0.770587
-0.827945
-0.877074
-0.917486
-0.94878
-0.970644
-0.982862
-0.985312
-0.977969
-0.960907
-0.934294
-0.898397
-0.85357
-0.800261
-0.738998
-0.670391
-0.595121
-0.513936
-0.427644
-0.337101
-0.243209
-0.146899
-0.049129
0.049129
0.146899
0.243209
0.337101
0.427644
0.513936
0.595121
0.670391
0.738998
0.800261
0.85357
0.898397
0.934294
0.960907
0.977969
0.985312
0.982862
0.970644
0.94878
0.917486
0.877074
0.827945
0.770587
0.705571
0.633543
0.555219
0.471376
0.382848
0.290516
0.195296
0.0981359
0
0
-0.0959253
-0.190897
-0.283972
-0.374224
-0.460758
-0.542712
-0.619272
-0.689678
-0.753229
-0.809295
-0.857317
-0.896819
-0.927408
-0.94878
-0.960723
-0.963117
-0.95594
-0.939262
-0.913249
-0.87816
-0.834343
-0.782234
-0.722352
-0.65529
-0.581715
-0.502359
-0.418011
-0.329508
-0.23773
-0.14359
-0.0480223
0.0480223
0.14359
0.23773
0.329508
0.418011
0.502359
0.581715
0.65529
0.722352
0.782234
0.834343
0.87816
0.913249