# vtk DataFile Version 3.0
Scalar Field Data
ASCII
DATASET STRUCTURED_POINTS
DIMENSIONS 64 64 1
ORIGIN 4 -4 0
SPACING 0.031746 0.031746 1
POINT_DATA 4096
SCALARS scalars double
LOOKUP_TABLE default
0.0172718
0.0197084
0.0223753
0.0252791
0.0284246
0.0318137
0.0354457
0.0393167
0.043419
0.0477415
0.0522692
0.0569828
0.0618592
0.0668711
0.0719874
0.077173
0.0823897
0.0875961
0.0927482
0.0978003
0.102705
0.107415
0.111881
0.116058
0.119901
0.123367
0.126416
0.129015
0.131131
0.132741
0.133826
0.134371
0.134371
0.133826
0.132741
0.131131
0.129015
0.126416
0.123367
0.119901
0.116058
0.111881
0.107415
0.102705
0.0978003
0.0927482
0.0875961
0.0823897
0.077173
0.0719874
0.0668711
0.0618592
0.0569828
0.0522692
0.0477415
0.043419
0.0393167
0.0354457
0.0318137
0.0284246
0.0252791
0.0223753
0.0197084
0.0172718
0.0197088
0.0224697
0.0254914
0.0287816
0.0323456
0.0361855
0.0403006
0.0446862
0.049334
0.0542312
0.0593606
0.0647007
0.0702252
0.075903
0.081699
0.0875736
0.0934832
0.0993811
0.105217
0.11094
0.116496
0.121831
0.126891
0.131623
0.135976
0.139901
0.143356
0.146299
0.148697
0.150521
0.151749
0.152367
0.152367
0.151749
0.150521
0.148697
0.146299
0.143356
0.139901
0.135976
0.131623
0.126891
0.121831
0.116496
0.11094
0.105217
0.0993811
0.0934832
0.0875736
0.081699
0.075903
0.0702252
0.0647007
0.0593606
0.0542312
0.049334
0.0446862
0.0403006
0.0361855
0.0323456
0.0287816
0.0254914
0.0224697
0.0197088
0.0223766
0.0254924
0.0289025
0.0326156
0.0366374
0.0409707
0.0456144
0.0505634
0.055808
0.0613341
0.0671222
0.0731479
0.0793816
0.0857883
0.0923283
0.0989568
0.105625
0.11228
0.118865
0.125322
0.131591
0.13761
0.143319
0.148658
0.153569
0.157999
0.161896
0.165217
0.167922
0.16998
0.171366
0.172063
0.172063
0.171366
0.16998
0.167922
0.165217
0.161896
0.157999
0.153569
0.148658
0.143319
0.13761
0.131591
0.125322
0.118865
0.11228
0.105625
0.0989568
0.0923283
0.0857883
0.0793816
0.0731479
0.0671222
0.0613341
0.055808
0.0505634
0.0456144
0.0409707
0.0366374
0.0326156
0.0289025
0.0254924
0.0223766
0.0252821
0.0287843
0.0326172
0.0367906
0.041311
0.0461815
0.0514007
0.056963
0.0628575
0.0690683
0.0755735
0.0823458
0.0893516
0.096552
0.103902
0.111351
0.118845
0.126324
0.133725
0.140982
0.148027
0.154792
0.161207
0.167207
0.172726
0.177704
0.182084
0.185816
0.188856
0.191169
0.192726
0.193509
0.193509
0.192726
0.191169
0.188856
0.185816
0.182084
0.177704
0.172726
0.167207
0.161207
0.154792
0.148027
0.140982
0.133725
0.126324
0.118845
0.111351
0.103902
0.096552
0.0893516
0.0823458
0.0755735
0.0690683
0.0628575
0.056963
0.0514007
0.0461815
0.041311
0.0367906
0.0326172
0.0287843
0.0252821
0.0284299
0.0323506
0.0366414
0.0413134
0.0463738
0.0518259
0.0576685
0.0638951
0.0704936
0.077446
0.0847279
0.0923087
0.100151
0.108211
0.116438
0.124777
0.133165
0.141537
0.149821
0.157944
0.16583
0.173402
0.180583
0.187299
0.193477
0.199049
0.203951
0.208128
0.211531
0.21412
0.215863
0.21674
0.21674
0.215863
0.21412
0.211531
0.208128
0.203951
0.199049
0.193477
0.187299
0.180583
0.173402
0.16583
0.157944
0.149821
0.141537
0.133165
0.124777
0.116438
0.108211
0.100151
0.0923087
0.0847279
0.077446
0.0704936
0.0638951
0.0576685
0.0518259
0.0463738
0.0413134
0.0366414
0.0323506
0.0284299
0.0318221
0.0361935
0.0409777
0.0461868
0.051829
0.0579079
0.064422
0.0713643
0.0787211
0.0864725
0.0945913
0.103043
0.111787
0.120773
0.129945
0.139242
0.148594
0.157928
0.167163
0.176219
0.185011
0.193453
0.201459
0.208947
0.215834
0.222046
0.227511
0.232168
0.235962
0.238848
0.240791
0.241769
0.241769
0.240791
0.238848
0.235962
0.232168
0.227511
0.222046
0.215834
0.208947
0.201459
0.193453
0.185011
0.176219
0.167163
0.157928
0.148594
0.139242
0.129945
0.120773
0.111787
0.103043
0.0945913
0.0864725
0.0787211
0.0713643
0.064422
0.0579079
0.051829
0.0461868
0.0409777
0.0361935
0.0318221
0.0354578
0.0403123
0.0456251
0.0514097
0.0576752
0.0644257
0.0716595
0.0793686
0.0875381
0.0961457
0.105161
0.114547
0.124256
0.134234
0.14442
0.154743
0.165128
0.175492
0.185748
0.195804
0.205566
0.21494
0.223831
0.232144
0.239792
0.24669
0.252759
0.25793
0.262143
0.265347
0.267505
0.268591
0.268591
0.267505
0.265347
0.262143
0.25793
0.252759
0.24669
0.239792
0.232144
0.223831
0.21494
0.205566
0.195804
0.185748
0.175492
0.165128
0.154743
0.14442
0.134234
0.124256
0.114547
0.105161
0.0961457
0.0875381
0.0793686
0.0716595
0.0644257
0.0576752
0.0514097
0.0456251
0.0403123
0.0354578
0.039333
0.0447023
0.0505784
0.0569763
0.0639061
0.0713723
0.079373
0.0878993
0.0969349
0.106455
0.116426
0.126806
0.137544
0.14858
0.159846
0.171263
0.182749
0.194211
0.205553
0.216675
0.227472
0.237839
0.247672
0.256867
0.265325
0.272953
0.279666
0.285385
0.290044
0.293587
0.295974
0.297175
0.297175
0.295974
0.293587
0.290044
0.285385
0.279666
0.272953
0.265325
0.256867
0.247672
0.237839
0.227472
0.216675
0.205553
0.194211
0.182749
0.171263
0.159846
0.14858
0.137544
0.126806
0.116426
0.106455
0.0969349
0.0878993
0.079373
0.0713723
0.0639061
0.0569763
0.0505784
0.0447023
0.039333
0.0434403
0.049355
0.055828
0.0628759
0.0705096
0.0787341
0.0875475
0.0969399
0.106893
0.11738
0.128364
0.139798
0.151627
0.163784
0.176193
0.18877
0.201422
0.214048
0.226542
0.238793
0.250686
0.262106
0.272937
0.283065
0.292382
0.300785
0.308179
0.314479
0.319611
0.323514
0.326143
0.327466
0.327466
0.326143
0.323514
0.319611
0.314479
0.308179
0.300785
0.292382
0.283065
0.272937
0.262106
0.250686
0.238793
0.226542
0.214048
0.201422
0.18877
0.176193
0.163784
0.151627
0.139798
0.128364
0.11738
0.106893
0.0969399
0.0875475
0.0787341
0.0705096
0.0628759
0.055828
0.049355
0.0434403
0.0477685
0.0542578
0.0613597
0.0690923
0.0774676
0.0864911
0.0961607
0.106465
0.117386
0.128891
0.140942
0.153487
0.166465
0.179802
0.193417
0.207215
0.221096
0.234948
0.248656
0.262097
0.275145
0.287674
0.299557
0.310669
0.320891
0.330109
0.338221
0.345133
0.350763
0.355046
0.35793
0.359381
0.359381
0.35793
0.355046
0.350763
0.345133
0.338221
0.330109
0.320891
0.310669
0.299557
0.287674
0.275145
0.262097
0.248656
0.234948
0.221096
0.207215
0.193417
0.179802
0.166465
0.153487
0.140942
0.128891
0.117386
0.106465
0.0961607
0.0864911
0.0774676
0.0690923
0.0613597
0.0542578
0.0477685
0.0523024
0.0593936
0.0671541
0.0756038
0.0847559
0.0946163
0.105183
0.116443
0.128376
0.140948
0.154117
0.167825
0.182006
0.19658
0.211457
0.226535
0.241703
0.256839
0.271818
0.286505
0.300763
0.314454
0.327438
0.33958
0.35075
0.360823
0.369687
0.377239
0.383392
0.388072
0.391223
0.392808
0.392808
0.391223
0.388072
0.383392
0.377239
0.369687
0.360823
0.35075
0.33958
0.327438
0.314454
0.300763
0.286505
0.271818
0.256839
0.241703
0.226535
0.211457
0.19658
0.182006
0.167825
0.154117
0.140948
0.128376
0.116443
0.105183
0.0946163
0.0847559
0.0756038
0.0671541
0.0593936
0.0523024
0.057023
0.0647406
0.0731868
0.082383
0.0923436
0.103075
0.114575
0.12683
0.139817
0.1535
0.167832
0.182751
0.198185
0.214047
0.230238
0.246647
0.263155
0.279629
0.29593
0.311914
0.327432
0.342332
0.356463
0.369678
0.381834
0.392797
0.402444
0.410663
0.417359
0.422452
0.425882
0.427607
0.427607
0.425882
0.422452
0.417359
0.410663
0.402444
0.392797
0.381834
0.369678
0.356463
0.342332
0.327432
0.311914
0.29593
0.279629
0.263155
0.246647
0.230238
0.214047
0.198185
0.182751
0.167832
0.1535
0.139817
0.12683
0.114575
0.103075
0.0923436
0.082383
0.0731868
0.0647406
0.057023
0.061907
0.0702726
0.079428
0.0893964
0.100193
0.111826
0.124292
0.137576
0.151653
0.166486
0.18202
0.198193
0.214922
0.232116
0.249666
0.267454
0.285347
0.303204
0.320874
0.3382
0.35502
0.371171
0.386489
0.400813
0.413989
0.425873
0.43633
0.445239
0.452497
0.458017
0.461735
0.463605
0.463605
0.461735
0.458017
0.452497
0.445239
0.43633
0.425873
0.413989
0.400813
0.386489
0.371171
0.35502
0.3382
0.320874
0.303204
0.285347
0.267454
0.249666
0.232116
0.214922
0.198193
0.18202
0.166486
0.151653
0.137576
0.124292
0.111826
0.100193
0.0893964
0.079428
0.0702726
0.061907
0.0669271
0.0759587
0.085843
0.0966049
0.108262
0.12082
0.134278
0.14862
0.163818
0.179831
0.196603
0.214062
0.232124
0.250686
0.269634
0.288837
0.308155
0.327433
0.34651
0.365215
0.383374
0.40081
0.417347
0.432811
0.447037
0.459866
0.471155
0.480774
0.488609
0.494569
0.498583
0.500602
0.500602
0.498583
0.494569
0.488609
0.480774
0.471155
0.459866
0.447037
0.432811
0.417347
0.40081
0.383374
0.365215
0.34651
0.327433
0.308155
0.288837
0.269634
0.250686
0.232124
0.214062
0.196603
0.179831
0.163818
0.14862
0.134278
0.12082
0.108262
0.0966049
0.085843
0.0759587
0.0669271
0.0720522
0.0817635
0.0923917
0.103964
0.116498
0.130002
0.144473
0.159894
0.176236
0.193455
0.211489
0.230262
0.249683
0.269642
0.290016
0.310665
0.331436
0.352165
0.372678
0.392791
0.412317
0.431065
0.448846
0.465475
0.480771
0.494566
0.506704
0.517046
0.525471
0.53188
0.536196
0.538367
0.538367
0.536196
0.53188
0.525471
0.517046
0.506704
0.494566
0.480771
0.465475
0.448846
0.431065
0.412317
0.392791
0.372678
0.352165
0.331436
0.310665
0.290016
0.269642
0.249683
0.230262
0.211489
0.193455
0.176236
0.159894
0.144473
0.130002
0.116498
0.103964
0.0923917
0.0817635
0.0720522
0.0772473
0.0876475
0.0990297
0.111423
0.124846
0.139308
0.154806
0.171321
0.188823
0.207262
0.226576
0.246682
0.26748
0.288855
0.310674
0.332788
0.355033
0.377232
0.3992
0.42074
0.441651
0.461729
0.480772
0.498579
0.51496
0.529734
0.542733
0.553809
0.562832
0.569695
0.574317
0.576642
0.576642
0.574317
0.569695
0.562832
0.553809
0.542733
0.529734
0.51496
0.498579
0.480772
0.461729
0.441651
0.42074
0.3992
0.377232
0.355033
0.332788
0.310674
0.288855
0.26748
0.246682
0.226576
0.207262
0.188823
0.171321
0.154806
0.139308
0.124846
0.111423
0.0990297
0.0876475
0.0772473
0.082474
0.0935672
0.105708
0.118927
0.133244
0.14867
0.1652
0.182817
0.201484
0.221153
0.241753
0.263199
0.285383
0.308183
0.331456
0.355043
0.37877
0.402449
0.42588
0.448855
0.47116
0.492576
0.512887
0.531881
0.549353
0.565111
0.578977
0.590791
0.600415
0.607735
0.612665
0.615145
0.615145
0.612665
0.607735
0.600415
0.590791
0.578977
0.565111
0.549353
0.531881
0.512887
0.492576
0.47116
0.448855
0.42588
0.402449
0.37877
0.355043
0.331456
0.308183
0.285383
0.263199
0.241753
0.221153
0.201484
0.182817
0.1652
0.14867
0.133244
0.118927
0.105708
0.0935672
0.082474
0.0876911
0.0994757
0.112373
0.126416
0.141627
0.158014
0.175575
0.194289
0.214121
0.235016
0.256901
0.279683
0.303251
0.327472
0.352196
0.377253
0.402459
0.427615
0.452507
0.476914
0.500609
0.52336
0.544938
0.565116
0.583677
0.600418
0.615147
0.627698
0.637922
0.645698
0.650936
0.65357
0.65357
0.650936
0.645698
0.637922
0.627698
0.615147
0.600418
0.583677
0.565116
0.544938
0.52336
0.500609
0.476914
0.452507
0.427615
0.402459
0.377253
0.352196
0.327472
0.303251
0.279683
0.256901
0.235016
0.214121
0.194289
0.175575
0.158014
0.141627
0.126416
0.112373
0.0994757
0.0876911
0.0928544
0.105323
0.11897
0.133828
0.149922
0.167261
0.185842
0.205643
0.226627
0.248735
0.271891
0.295996
0.320932
0.34656
0.372719
0.399232
0.425902
0.452518
0.478856
0.50468
0.529751
0.553823
0.576653
0.598003
0.617643
0.635355
0.65094
0.664219
0.675037
0.683265
0.688806
0.691594
0.691594
0.688806
0.683265
0.675037
0.664219
0.65094
0.635355
0.617643
0.598003
0.576653
0.553823
0.529751
0.50468
0.478856
0.452518
0.425902
0.399232
0.372719
0.34656
0.320932
0.295996
0.271891
0.248735
0.226627
0.205643
0.185842
0.167261
0.149922
0.133828
0.11897
0.105323
0.0928544
0.0979183
0.111058
0.125439
0.141097
0.158057
0.176329
0.19591
0.216777
0.238889
0.262188
0.28659
0.311992
0.33827
0.365277
0.392844
0.420784
0.448889
0.476937
0.504692
0.531906
0.558326
0.583694
0.607753
0.630251
0.650947
0.669613
0.686037
0.70003
0.71143
0.720101
0.72594
0.728878
0.728878
0.72594
0.720101
0.71143
0.70003
0.686037
0.669613
0.650947
0.630251
0.607753
0.583694
0.558326
0.531906
0.504692
0.476937
0.448889
0.420784
0.392844
0.365277
0.33827
0.311992
0.28659
0.262188
0.238889
0.216777
0.19591
0.176329
0.158057
0.141097
0.125439
0.111058
0.0979183
0.102835
0.116627
0.13172
0.148154
0.165955
0.185133
0.205685
0.227586
0.250795
0.275248
0.30086
0.327522
0.355103
0.383449
0.412382
0.441707
0.471206
0.500644
0.529775
0.558338
0.586068
0.612693
0.637944
0.661558
0.683281
0.702871
0.720109
0.734796
0.746761
0.755862
0.761991
0.765074
0.765074
0.761991
0.755862
0.746761
0.734796
0.720109
0.702871
0.683281
0.661558
0.637944
0.612693
0.586068
0.558338
0.529775
0.500644
0.471206
0.441707
0.412382
0.383449
0.355103
0.327522
0.30086
0.275248
0.250795
0.227586
0.205685
0.185133
0.165955
0.148154
0.13172
0.116627
0.102835
0.107558
0.121974
0.137752
0.154932
0.17354
0.193588
0.215072
0.237966
0.262228
0.28779
0.314564
0.342435
0.371267
0.400898
0.431144
0.461798
0.492635
0.523408
0.55386
0.583719
0.612706
0.640538
0.666935
0.69162
0.714327
0.734806
0.752826
0.768179
0.780686
0.7902
0.796607
0.79983
0.79983
0.796607
0.7902
0.780686
0.768179
0.752826
0.734806
0.714327
0.69162
0.666935
0.640538
0.612706
0.583719
0.55386
0.523408
0.492635
0.461798
0.431144
0.400898
0.371267
0.342435
0.314564
0.28779
0.262228
0.237966
0.215072
0.193588
0.17354
0.154932
0.137752
0.121974
0.107558
0.112038
0.127048
0.143475
0.161361
0.180735
0.201608
0.223975
0.247812
0.273072
0.299686
0.327561
0.356579
0.386597
0.417448
0.448938
0.480854
0.512959
0.544999
0.576704
0.607791
0.637971
0.666948
0.694431
0.720132
0.743773
0.765095
0.783856
0.79984
0.812862
0.822768
0.829438
0.832794
0.832794
0.829438
0.822768
0.812862
0.79984
0.783856
0.765095
0.743773
0.720132
0.694431
0.666948
0.637971
0.607791
0.576704
0.544999
0.512959
0.480854
0.448938
0.417448
0.386597
0.356579
0.327561
0.299686
0.273072
0.247812
0.223975
0.201608
0.180735
0.161361
0.143475
0.127048
0.112038
0.116229
0.131794
0.148828
0.167375
0.187465
0.209109
0.232303
0.257021
0.283215
0.310812
0.339718
0.369808
0.400936
0.432926
0.46558
0.498676
0.531967
0.565191
0.598068
0.630304
0.661599
0.691647
0.720146
0.746796
0.771311
0.79342
0.812875
0.82945
0.842953
0.853225
0.860141
0.863621
0.863621
0.860141
0.853225
0.842953
0.82945
0.812875
0.79342
0.771311
0.746796
0.720146
0.691647
0.661599
0.630304
0.598068
0.565191
0.531967
0.498676
0.46558
0.432926
0.400936
0.369808
0.339718
0.310812
0.283215
0.257021
0.232303
0.209109
0.187465
0.167375
0.148828
0.131794
0.116229
0.120087
0.136161
0.153754
0.172909
0.193657
0.216011
0.239966
0.265494
0.292546
0.321049
0.350902
0.381979
0.414127
0.447166
0.480891
0.515071
0.549454
0.583768
0.617722
0.651015
0.683335
0.714369
0.743802
0.771325
0.796644
0.819478
0.83957
0.856689
0.870635
0.881243
0.888387
0.89198
0.89198
0.888387
0.881243
0.870635
0.856689
0.83957
0.819478
0.796644
0.771325
0.743802
0.714369
0.683335
0.651015
0.617722
0.583768
0.549454
0.515071
0.480891
0.447166
0.414127
0.381979
0.350902
0.321049
0.292546
0.265494
0.239966
0.216011
0.193657
0.172909
0.153754
0.136161
0.120087
0.123568
0.140102
0.158198
0.177902
0.199244
0.222238
0.246878
0.273137
0.300964
0.330283
0.36099
0.392957
0.426025
0.460011
0.494701
0.52986
0.565227
0.600523
0.635449
0.669695
0.702941
0.734863
0.765138
0.79345
0.819493
0.842981
0.863648
0.881257
0.895602
0.906514
0.913862
0.917558
0.917558
0.913862
0.906514
0.895602
0.881257
0.863648
0.842981
0.819493
0.79345
0.765138
0.734863
0.702941
0.669695
0.635449
0.600523
0.565227
0.52986
0.494701
0.460011
0.426025
0.392957
0.36099
0.330283
0.300964
0.273137
0.246878
0.222238
0.199244
0.177902
0.158198
0.140102
0.123568
0.126633
0.143572
0.162111
0.182297
0.204162
0.227719
0.252963
0.279865
0.308374
0.33841
0.36987
0.402619
0.436498
0.471315
0.506855
0.542875
0.579108
0.615268
0.651049
0.686134
0.720194
0.752898
0.783914
0.812919
0.839601
0.863664
0.884837
0.902877
0.917573
0.928752
0.93628
0.940067
0.940067
0.93628
0.928752
0.917573
0.902877
0.884837
0.863664
0.839601
0.812919
0.783914
0.752898
0.720194
0.686134
0.651049
0.615268
0.579108
0.542875
0.506855
0.471315
0.436498
0.402619
0.36987
0.33841
0.308374
0.279865
0.252963
0.227719
0.204162
0.182297
0.162111
0.143572
0.126633
0.129247
0.146531
0.165448
0.186045
0.208355
0.232392
0.25815
0.2856
0.314689
0.345338
0.377438
0.410855
0.445423
0.480949
0.517213
0.553966
0.590938
0.627834
0.664344
0.700143
0.734897
0.768267
0.799915
0.829511
0.856735
0.881288
0.902893
0.9213
0.936296
0.947702
0.955384
0.959248
0.959248
0.955384
0.947702
0.936296
0.9213
0.902893
0.881288
0.856735
0.829511
0.799915
0.768267
0.734897
0.700143
0.664344
0.627834
0.590938
0.553966
0.517213
0.480949
0.445423
0.410855
0.377438
0.345338
0.314689
0.2856
0.25815
0.232392
0.208355
0.186045
0.165448
0.146531
0.129247
0.13138
0.148946
0.16817
0.189102
0.211775
0.236203
0.26238
0.290276
0.319838
0.350985
0.383607
0.417567
0.452697
0.488801
0.525655
0.563006
0.600578
0.638074
0.675178
0.711559
0.746878
0.780791
0.812953
0.84303
0.870697
0.89565
0.917605
0.936312
0.951551
0.963143
0.97095
0.974877
0.974877
0.97095
0.963143
0.951551
0.936312
0.917605
0.89565
0.870697
0.84303
0.812953
0.780791
0.746878
0.711559
0.675178
0.638074
0.600578
0.563006
0.525655
0.488801
0.452697
0.417567
0.383607
0.350985
0.319838
0.290276
0.26238
0.236203
0.211775
0.189102
0.16817
0.148946
0.13138
0.133008
0.150787
0.170245
0.191432
0.214381
0.239106
0.265601
0.293837
0.323759
0.355285
0.388304
0.422677
0.458235
0.494779
0.53208
0.569886
0.607916
0.645868
0.683424
0.720248
0.755996
0.790321
0.822875
0.853318
0.881322
0.906578
0.928801
0.947735
0.96316
0.974893
0.982794
0.986769
0.986769
0.982794
0.974893
0.96316
0.947735
0.928801
0.906578
0.881322
0.853318
0.822875
0.790321
0.755996
0.720248
0.683424
0.645868
0.607916
0.569886
0.53208
0.494779
0.458235
0.422677
0.388304
0.355285
0.323759
0.293837
0.265601
0.239106
0.214381
0.191432
0.170245
0.150787
0.133008
0.13411
0.152032
0.171648
0.193007
0.216141
0.241067
0.267777
0.296241
0.326405
0.358186
0.391473
0.426124
0.46197
0.49881
0.536414
0.574525
0.612863
0.651123
0.688982
0.726104
0.762142
0.796745
0.829563
0.860252
0.888483
0.913943
0.936346
0.955434
0.970984
0.982812
0.990777
0.994784
0.994784
0.990777
0.982812
0.970984
0.955434
0.936346
0.913943
0.888483
0.860252
0.829563
0.796745
0.762142
0.726104
0.688982
0.651123
0.612863
0.574525
0.536414
0.49881
0.46197
0.426124
0.391473
0.358186
0.326405
0.296241
0.267777
0.241067
0.216141
0.193007
0.171648
0.152032
0.13411
0.134673
0.152668
0.172363
0.193808
0.217036
0.242062
0.26888
0.29746
0.327746
0.359655
0.393076
0.427868
0.463858
0.500847
0.538602
0.576868
0.615361
0.653775
0.691787
0.729059
0.765243
0.799986
0.832936
0.863749
0.892094
0.917657
0.940151
0.959315
0.974928
0.986804
0.994801
0.998824
0.998824
0.994801
0.986804
0.974928
0.959315
0.940151
0.917657
0.892094
0.863749
0.832936
0.799986
0.765243
0.729059
0.691787
0.653775
0.615361
0.576868
0.538602
0.500847
0.463858
0.427868
0.393076
0.359655
0.327746
0.29746
0.26888
0.242062
0.217036
0.193808
0.172363
0.152668
0.134673
0.134692
0.152687
0.172382
0.193827
0.217055
0.242081
0.268898
0.297478
0.327764
0.359673
0.393094
0.427886
0.463877
0.500865
0.538621
0.576886
0.615379
0.653793
0.691805
0.729077
0.765261
0.800004
0.832954
0.863767
0.892112
0.917675
0.940168
0.959333
0.974946
0.986821
0.994819
0.998842
0.998842
0.994819
0.986821
0.974946
0.959333
0.940168
0.917675
0.892112
0.863767
0.832954
0.800004
0.765261
0.729077
0.691805
0.653793
0.615379
0.576886
0.538621
0.500865
0.463877
0.427886
0.393094
0.359673
0.327764
0.297478
0.268898
0.242081
0.217055
0.193827
0.172382
0.152687
0.134692
0.134165
0.152088
0.171704
0.193062
0.216197
0.241122
0.267832
0.296296
0.32646
0.358241
0.391528
0.426179
0.462025
0.498864
0.536468
0.57458
0.612917
0.651177
0.689036
0.726158
0.762196
0.796799
0.829617
0.860306
0.888537
0.913997
0.9364
0.955487
0.971037
0.982865
0.99083
0.994837
0.994837
0.99083
0.982865
0.971037
0.955487
0.9364
0.913997
0.888537
0.860306
0.829617
0.796799
0.762196
0.726158
0.689036
0.651177
0.612917
0.57458
0.536468
0.498864
0.462025
0.426179
0.391528
0.358241
0.32646
0.296296
0.267832
0.241122
0.216197
0.193062
0.171704
0.152088
0.134165
0.1331
0.150879
0.170337
0.191524
0.214473
0.239198
0.265693
0.293929
0.323851
0.355376
0.388395
0.422769
0.458326
0.49487
0.532171
0.569977
0.608006
0.645959
0.683514
0.720338
0.756086
0.790411
0.822965
0.853408
0.881412
0.906667
0.92889
0.947824
0.963249
0.974982
0.982883
0.986858
0.986858
0.982883
0.974982
0.963249
0.947824
0.92889
0.906667
0.881412
0.853408
0.822965
0.790411
0.756086
0.720338
0.683514
0.645959
0.608006
0.569977
0.532171
0.49487
0.458326
0.422769
0.388395
0.355376
0.323851
0.293929
0.265693
0.239198
0.214473
0.191524
0.170337
0.150879
0.1331
0.13151
0.149075
0.168299
0.189231
0.211904
0.236332
0.262508
0.290405
0.319967
0.351113
0.383735
0.417695
0.452825
0.488929
0.525782
0.563133
0.600705
0.638201
0.675305
0.711686
0.747004
0.780916
0.813079
0.843155
0.870823
0.895775
0.91773
0.936437
0.951676
0.963268
0.971074
0.975001
0.975001
0.971074
0.963268
0.951676
0.936437
0.91773
0.895775
0.870823
0.843155
0.813079
0.780916
0.747004
0.711686
0.675305
0.638201
0.600705
0.563133
0.525782
0.488929
0.452825
0.417695
0.383735
0.351113
0.319967
0.290405
0.262508
0.236332
0.211904
0.189231
0.168299
0.149075
0.13151
0.129413
0.146697
0.165614
0.186211
0.208521
0.232558
0.258316
0.285766
0.314855
0.345503
0.377603
0.411019
0.445587
0.481113
0.517377
0.55413
0.591101
0.627997
0.664507
0.700305
0.735059
0.768428
0.800076
0.829672
0.856896
0.881449
0.903053
0.92146
0.936456
0.947862
0.955543
0.959407
0.959407
0.955543
0.947862
0.936456
0.92146
0.903053
0.881449
0.856896
0.829672
0.800076
0.768428
0.735059
0.700305
0.664507
0.627997
0.591101
0.55413
0.517377
0.481113
0.445587
0.411019
0.377603
0.345503
0.314855
0.285766
0.258316
0.232558
0.208521
0.186211
0.165614
0.146697
0.129413
0.126835
0.143774
0.162314
0.1825
0.204365
0.227922
0.253165
0.280067
0.308575
0.338611
0.370071
0.40282
0.436698
0.471515
0.507054
0.543074
0.579307
0.615466
0.651247
0.686332
0.720391
0.753095
0.784111
0.813116
0.839797
0.863859
0.885032
0.903072
0.917768
0.928947
0.936475
0.940262
0.940262
0.936475
0.928947
0.917768
0.903072
0.885032
0.863859
0.839797
0.813116
0.784111
0.753095
0.720391
0.686332
0.651247
0.615466
0.579307
0.543074
0.507054
0.471515
0.436698
0.40282
0.370071
0.338611
0.308575
0.280067
0.253165
0.227922
0.204365
0.1825
0.162314
0.143774
0.126835
0.123807
0.140341
0.158437
0.178141
0.199483
0.222477
0.247117
0.273376
0.301202
0.33052
0.361228
0.393194
0.426262
0.460247
0.494936
0.530095
0.565462
0.600757
0.635682
0.669928
0.703174
0.735095
0.76537
0.793681
0.819724
0.843212
0.863879
0.881487
0.895832
0.906744
0.914092
0.917788
0.917788
0.914092
0.906744
0.895832
0.881487
0.863879
0.843212
0.819724
0.793681
0.76537
0.735095
0.703174
0.669928
0.635682
0.600757
0.565462
0.530095
0.494936
0.460247
0.426262
0.393194
0.361228
0.33052
0.301202
0.273376
0.247117
0.222477
0.199483
0.178141
0.158437
0.140341
0.123807
0.120362
0.136436
0.154029
0.173184
0.193932
0.216286
0.24024
0.265768
0.29282
0.321322
0.351175
0.382251
0.414399
0.447438
0.481162
0.515342
0.549724
0.584037
0.617991
0.651283
0.683603
0.714636
0.744069
0.771592
0.79691
0.819744
0.839836
0.856954
0.8709
0.881508
0.888651
0.892245
0.892245
0.888651
0.881508
0.8709
0.856954
0.839836
0.819744
0.79691
0.771592
0.744069
0.714636
0.683603
0.651283
0.617991
0.584037
0.549724
0.515342
0.481162
0.447438
0.414399
0.382251
0.351175
0.321322
0.29282
0.265768
0.24024
0.216286
0.193932
0.173184
0.154029
0.136436
0.120362
0.116541
0.132105
0.149139
0.167687
0.187776
0.20942
0.232614
0.257331
0.283525
0.311122
0.340027
0.370117
0.401244
0.433233
0.465887
0.498982
0.532273
0.565496
0.598372
0.630607
0.661902
0.69195
0.720447
0.747097
0.771612
0.793721
0.813175
0.82975
0.843253
0.853524
0.86044
0.86392
0.86392
0.86044
0.853524
0.843253
0.82975
0.813175
0.793721
0.771612
0.747097
0.720447
0.69195
0.661902
0.630607
0.598372
0.565496
0.532273
0.498982
0.465887
0.433233
0.401244
0.370117
0.340027
0.311122
0.283525
0.257331
0.232614
0.20942
0.187776
0.167687
0.149139
0.132105
0.116541
0.112386
0.127395
0.143822
0.161709
0.181082
0.201955
0.224322
0.248158
0.273418
0.300031
0.327906
0.356923
0.386941
0.41779
0.44928
0.481195
0.5133
0.545339
0.577043
0.608129
0.638308
0.667285
0.694767
0.720467
0.744108
0.765429
0.78419
0.800174
0.813196
0.823101
0.829771
0.833126
0.833126
0.829771
0.823101
0.813196
0.800174
0.78419
0.765429
0.744108
0.720467
0.694767
0.667285
0.638308
0.608129
0.577043
0.545339
0.5133
0.481195
0.44928
0.41779
0.386941
0.356923
0.327906
0.300031
0.273418
0.248158
0.224322
0.201955
0.181082
0.161709
0.143822
0.127395
0.112386
0.107941
0.122358
0.138136
0.155315
0.173923
0.193971
0.215454
0.238348
0.262609
0.288171
0.314943
0.342814
0.371645
0.401275
0.431521
0.462174
0.49301
0.523783
0.554234
0.584092
0.613078
0.640909
0.667305
0.69199
0.714696
0.735175
0.753194
0.768546
0.781053
0.790567
0.796974
0.800196
0.800196
0.796974
0.790567
0.781053
0.768546
0.753194
0.735175
0.714696
0.69199
0.667305
0.640909
0.613078
0.584092
0.554234
0.523783
0.49301
0.462174
0.431521
0.401275
0.371645
0.342814
0.314943
0.288171
0.262609
0.238348
0.215454
0.193971
0.173923
0.155315
0.138136
0.122358
0.107941
0.103254
0.117045
0.132139
0.148573
0.166373
0.185551
0.206102
0.228003
0.251211
0.275664
0.301275
0.327936
0.355516
0.383861
0.412794
0.442118
0.471615
0.501053
0.530183
0.558745
0.586474
0.613098
0.638349
0.661962
0.683683
0.703273
0.72051
0.735197
0.747161
0.756262
0.762391
0.765474
0.765474
0.762391
0.756262
0.747161
0.735197
0.72051
0.703273
0.683683
0.661962
0.638349
0.613098
0.586474
0.558745
0.530183
0.501053
0.471615
0.442118
0.412794
0.383861
0.355516
0.327936
0.301275
0.275664
0.251211
0.228003
0.206102
0.185551
0.166373
0.148573
0.132139
0.117045
0.103254
0.0983724
0.111512
0.125893
0.141551
0.15851
0.176782
0.196362
0.217229
0.239341
0.262638
0.287039
0.312441
0.338718
0.365724
0.39329
0.421228
0.449333
0.47738
0.505134
0.532347
0.558766
0.584132
0.60819
0.630688
0.651383
0.670048
0.686471
0.700464
0.711863
0.720534
0.726373
0.729311
0.729311
0.726373
0.720534
0.711863
0.700464
0.686471
0.670048
0.651383
0.630688
0.60819
0.584132
0.558766
0.532347
0.505134
0.47738
0.449333
0.421228
0.39329
0.365724
0.338718
0.312441
0.287039
0.262638
0.239341
0.217229
0.196362
0.176782
0.15851
0.141551
0.125893
0.111512
0.0983724
0.0933435
0.105812
0.119459
0.134317
0.15041
0.167749
0.186329
0.20613
0.227112
0.24922
0.272375
0.296479
0.321414
0.347041
0.373199
0.399711
0.42638
0.452994
0.479331
0.505154
0.530224
0.554295
0.577124
0.598473
0.618111
0.635823
0.651407
0.664685
0.675502
0.683731
0.689272
0.692059
0.692059
0.689272
0.683731
0.675502
0.664685
0.651407
0.635823
0.618111
0.598473
0.577124
0.554295
0.530224
0.505154
0.479331
0.452994
0.42638
0.399711
0.373199
0.347041
0.321414
0.296479
0.272375
0.24922
0.227112
0.20613
0.186329
0.167749
0.15041
0.134317
0.119459
0.105812
0.0933435
0.0882147
0.0999993
0.112897
0.126939
0.142149
0.158536
0.176097
0.19481
0.214641
0.235535
0.257419
0.2802
0.303767
0.327987
0.352709
0.377765
0.40297
0.428124
0.453015
0.477421
0.501114
0.523864
0.545441
0.565618
0.584178
0.600917
0.615646
0.628196
0.638419
0.646196
0.651433
0.654067
0.654067
0.651433
0.646196
0.638419
0.628196
0.615646
0.600917
0.584178
0.565618
0.545441
0.523864
0.501114
0.477421
0.453015
0.428124
0.40297
0.377765
0.352709
0.327987
0.303767
0.2802
0.257419
0.235535
0.214641
0.19481
0.176097
0.158536
0.142149
0.126939
0.112897
0.0999993
0.0882147
0.083032
0.094125
0.106265
0.119484
0.133801
0.149227
0.165756
0.183371
0.202038
0.221706
0.242305
0.26375
0.285933
0.308731
0.332002
0.355588
0.379314
0.402991
0.426421
0.449395
0.471697
0.493112
0.513422
0.532415
0.549886
0.565643
0.579507
0.59132
0.600944
0.608264
0.613193
0.615673
0.615673
0.613193
0.608264
0.600944
0.59132
0.579507
0.565643
0.549886
0.532415
0.513422
0.493112
0.471697
0.449395
0.426421
0.402991
0.379314
0.355588
0.332002
0.308731
0.285933
0.26375
0.242305
0.221706
0.202038
0.183371
0.165756
0.149227
0.133801
0.119484
0.106265
0.094125
0.083032
0.0778392
0.0882393
0.0996213
0.112014
0.125437
0.139898
0.155395
0.17191
0.18941
0.207849
0.227161
0.247265
0.268063
0.289436
0.311254
0.333366
0.355609
0.377807
0.399773
0.421311
0.44222
0.462297
0.481338
0.499144
0.515524
0.530296
0.543295
0.554369
0.563392
0.570254
0.574876
0.577201
0.577201
0.574876
0.570254
0.563392
0.554369
0.543295
0.530296
0.515524
0.499144
0.481338
0.462297
0.44222
0.421311
0.399773
0.377807
0.355609
0.333366
0.311254
0.289436
0.268063
0.247265
0.227161
0.207849
0.18941
0.17191
0.155395
0.139898
0.125437
0.112014
0.0996213
0.0882393
0.0778392
0.0726776
0.0823889
0.0930169
0.104589
0.117122
0.130625
0.145095
0.160516
0.176857
0.194074
0.212107
0.230879
0.250298
0.270256
0.290628
0.311275
0.332044
0.352772
0.373282
0.393394
0.412918
0.431664
0.449444
0.46607
0.481365
0.495158
0.507295
0.517637
0.526061
0.532469
0.536785
0.538955
0.538955
0.536785
0.532469
0.526061
0.517637
0.507295
0.495158
0.481365
0.46607
0.449444
0.431664
0.412918
0.393394
0.373282
0.352772
0.332044
0.311275
0.290628
0.270256
0.250298
0.230879
0.212107
0.194074
0.176857
0.160516
0.145095
0.130625
0.117122
0.104589
0.0930169
0.0823889
0.0726776
0.0675858
0.0766172
0.0865013
0.0972629
0.108919
0.121477
0.134934
0.149275
0.164472
0.180484
0.197254
0.214712
0.232771
0.251332
0.270277
0.289479
0.308794
0.328071
0.347145
0.365848
0.384006
0.40144
0.417975
0.433437
0.447661
0.460489
0.471776
0.481393
0.489228
0.495188
0.499201
0.50122
0.50122
0.499201
0.495188
0.489228
0.481393
0.471776
0.460489
0.447661
0.433437
0.417975
0.40144
0.384006
0.365848
0.347145
0.328071
0.308794
0.289479
0.270277
0.251332
0.232771
0.214712
0.197254
0.180484
0.164472
0.149275
0.134934
0.121477
0.108919
0.0972629
0.0865013
0.0766172
0.0675858
0.0625984
0.0709639
0.0801191
0.0900871
0.100884
0.112515
0.12498
0.138263
0.152339
0.16717
0.182703
0.198874
0.215601
0.232793
0.250341
0.268127
0.286017
0.303872
0.32154
0.338864
0.355682
0.37183
0.387145
0.401468
0.414642
0.426524
0.436979
0.445887
0.453144
0.458664
0.462381
0.464251
0.464251
0.462381
0.458664
0.453144
0.445887
0.436979
0.426524
0.414642
0.401468
0.387145
0.37183
0.355682
0.338864
0.32154
0.303872
0.286017