# vtk DataFile Version 3.0
Scalar Field Data
ASCII
DATASET STRUCTURED_POINTS
DIMENSIONS 128 128 1
ORIGIN -5 -5 0
SPACING 0.0787402 0.0787402 1
POINT_DATA 16384
SCALARS scalars double
LOOKUP_TABLE default
0.241254
0.1264
-0.0502066
-0.182367
-0.201866
-0.09952
0.0739138
0.218849
0.240175
0.123051
-0.0536639
-0.18402
-0.200926
-0.0964251
0.0775323
0.220743
0.239035
0.119675
-0.0571003
-0.185623
-0.199934
-0.0932995
0.0811381
0.222582
0.237835
0.116275
-0.060515
-0.187176
-0.198889
-0.090144
0.08473
0.224366
0.236574
0.112852
-0.0639073
-0.18868
-0.197793
-0.0869591
0.0883073
0.226094
0.235253
0.109405
-0.0672764
-0.190134
-0.196644
-0.0837457
0.0918688
0.227765
0.233872
0.105937
-0.0706214
-0.191538
-0.195444
-0.0805045
0.0954135
0.229379
0.232433
0.102449
-0.0739416
-0.192891
-0.194193
-0.0772362
0.0989406
0.230935
0.230935
0.0989406
-0.0772362
-0.194193
-0.192891
-0.0739416
0.102449
0.232433
0.229379
0.0954135
-0.0805045
-0.195444
-0.191538
-0.0706214
0.105937
0.233872
0.227765
0.0918688
-0.0837457
-0.196644
-0.190134
-0.0672764
0.109405
0.235253
0.226094
0.0883073
-0.0869591
-0.197793
-0.18868
-0.0639073
0.112852
0.236574
0.224366
0.08473
-0.090144
-0.198889
-0.187176
-0.060515
0.116275
0.237835
0.222582
0.0811381
-0.0932995
-0.199934
-0.185623
-0.0571003
0.119675
0.239035
0.220743
0.0775323
-0.0964251
-0.200926
-0.18402
-0.0536639
0.123051
0.240175
0.218849
0.0739138
-0.09952
-0.201866
-0.182367
-0.0502066
0.1264
0.241254
0.1264
-0.0525938
-0.186289
-0.20877
-0.110068
0.0641572
0.218006
0.252574
0.144248
-0.033985
-0.176476
-0.21246
-0.125997
0.0434027
0.20437
0.255091
0.160977
-0.014161
-0.164678
-0.214128
-0.140374
0.0232286
0.190105
0.25629
0.176763
0.00573059
-0.151955
-0.214528
-0.153705
0.00329171
0.174963
0.256
0.191505
0.0256573
-0.138298
-0.21364
-0.165975
-0.0164208
0.158885
0.254125
0.205137
0.0456232
-0.123649
-0.211386
-0.177112
-0.0358686
0.141828
0.250539
0.217528
0.0655896
-0.107951
-0.207663
-0.186992
-0.0549438
0.123807
0.245101
0.228474
0.0854342
-0.0911946
-0.202369
-0.195459
-0.073462
0.104933
0.237729
0.237729
0.104933
-0.073462
-0.195459
-0.202369
-0.0911946
0.0854342
0.228474
0.245101
0.123807
-0.0549438
-0.186992
-0.207663
-0.107951
0.0655896
0.217528
0.250539
0.141828
-0.0358686
-0.177112
-0.211386
-0.123649
0.0456232
0.205137
0.254125
0.158885
-0.0164208
-0.165975
-0.21364
-0.138298
0.0256573
0.191505
0.256
0.174963
0.00329171
-0.153705
-0.214528
-0.151955
0.00573059
0.176763
0.25629
0.190105
0.0232286
-0.140374
-0.214128
-0.164678
-0.014161
0.160977
0.255091
0.20437
0.0434027
-0.125997
-0.21246
-0.176476
-0.033985
0.144248
0.252574
0.218006
0.0641572
-0.110068
-0.20877
-0.186289
-0.0525938
0.1264
-0.0502066
-0.186289
-0.211499
-0.116614
0.055338
0.213375
0.259551
0.162755
-0.013322
-0.165223
-0.218138
-0.149691
0.0101638
0.180687
0.259972
0.195561
0.0303935
-0.1351
-0.215582
-0.175772
-0.0328359
0.143929
0.252663
0.222609
0.0739241
-0.100315
-0.206272
-0.195842
-0.0735279
0.103635
0.237485
0.242763
0.1159
-0.06171
-0.190397
-0.209499
-0.110926
0.0609676
0.214839
0.255211
0.155018
-0.0201661
-0.168166
-0.216356
-0.144044
0.0172093
0.185364
0.259284
0.189878
0.0232513
-0.13991
-0.216089
-0.171916
-0.026237
0.149998
0.254536
0.218996
0.0672053
-0.10618
-0.208503
-0.193644
-0.067865
0.110056
0.240925
0.240925
0.110056
-0.067865
-0.193644
-0.208503
-0.10618
0.0672053
0.218996
0.254536
0.149998
-0.026237
-0.171916
-0.216089
-0.13991
0.0232513
0.189878
0.259284
0.185364
0.0172093
-0.144044
-0.216356
-0.168166
-0.0201661
0.155018
0.255211
0.214839
0.0609676
-0.110926
-0.209499
-0.190397
-0.06171
0.1159
0.242763
0.237485
0.103635
-0.0735279
-0.195842
-0.206272
-0.100315
0.0739241
0.222609
0.252663
0.143929
-0.0328359
-0.175772
-0.215582
-0.1351
0.0303935
0.195561
0.259972
0.180687
0.0101638
-0.149691
-0.218138
-0.165223
-0.013322
0.162755
0.259551
0.213375
0.055338
-0.116614
-0.211499
-0.186289
-0.0502066
-0.182367
-0.20877
-0.116614
0.0519946
0.209887
0.262153
0.174577
0.00311783
-0.153485
-0.21909
-0.166373
-0.0175812
0.156176
0.256612
0.220061
0.0703142
-0.102
-0.207124
-0.198847
-0.0807673
0.0939635
0.232319
0.249474
0.134245
-0.0410426
-0.179156
-0.215581
-0.13535
0.0271423
0.190831
0.259758
0.189508
0.0252292
-0.136788
-0.215761
-0.178014
-0.0392321
0.135739
0.249825
0.231281
0.0920936
-0.0823653
-0.199246
-0.206169
-0.100323
0.0717174
0.220354
0.255525
0.154251
-0.0192037
-0.166711
-0.218013
-0.151804
0.00412516
0.173868
0.259524
0.206128
0.0482873
-0.119815
-0.212619
-0.190097
-0.0614584
0.114649
0.242511
0.242511
0.114649
-0.0614584
-0.190097
-0.212619
-0.119815
0.0482873
0.206128
0.259524
0.173868
0.00412516
-0.151804
-0.218013
-0.166711
-0.0192037
0.154251
0.255525
0.220354
0.0717174
-0.100323
-0.206169
-0.199246
-0.0823653
0.0920936
0.231281
0.249825
0.135739
-0.0392321
-0.178014
-0.215761
-0.136788
0.0252292
0.189508
0.259758
0.190831
0.0271423
-0.13535
-0.215581
-0.179156
-0.0410426
0.134245
0.249474
0.232319
0.0939635
-0.0807673
-0.198847
-0.207124
-0.102
0.0703142
0.220061
0.256612
0.156176
-0.0175812
-0.166373
-0.21909
-0.153485
0.00311783
0.174577
0.262153
0.209887
0.0519946
-0.116614
-0.20877
-0.182367
-0.201866
-0.110068
0.055338
0.209887
0.26273
0.180072
0.013121
-0.144478
-0.217803
-0.176967
-0.0385173
0.134628
0.249346
0.23593
0.102959
-0.0700547
-0.192916
-0.211597
-0.118767
0.0464305
0.20247
0.25955
0.181964
0.0179372
-0.140026
-0.216086
-0.178871
-0.0433939
0.129112
0.246397
0.237368
0.107669
-0.0650135
-0.190145
-0.212347
-0.122806
0.0409656
0.198655
0.259799
0.186046
0.0232751
-0.136283
-0.215642
-0.181998
-0.0487939
0.124246
0.245031
0.240369
0.113112
-0.0601651
-0.188161
-0.214101
-0.127684
0.0352128
0.19525
0.260869
0.190895
0.0290602
-0.132449
-0.215405
-0.185524
-0.0546614
0.118942
0.243358
0.243358
0.118942
-0.0546614
-0.185524
-0.215405
-0.132449
0.0290602
0.190895
0.260869
0.19525
0.0352128
-0.127684
-0.214101
-0.188161
-0.0601651
0.113112
0.240369
0.245031
0.124246
-0.0487939
-0.181998
-0.215642
-0.136283
0.0232751
0.186046
0.259799
0.198655
0.0409656
-0.122806
-0.212347
-0.190145
-0.0650135
0.107669
0.237368
0.246397
0.129112
-0.0433939
-0.178871
-0.216086
-0.140026
0.0179372
0.181964
0.25955
0.20247
0.0464305
-0.118767
-0.211597
-0.192916
-0.0700547
0.102959
0.23593
0.249346
0.134628
-0.0385173
-0.176967
-0.217803
-0.144478
0.013121
0.180072
0.26273
0.209887
0.055338
-0.110068
-0.201866
-0.09952
0.0641572
0.213375
0.262153
0.180072
0.0164293
-0.139748
-0.21634
-0.183034
-0.0528043
0.11785
0.241334
0.245613
0.128198
-0.0419158
-0.176618
-0.216961
-0.147342
0.00453301
0.168919
0.257116
0.21638
0.0715672
-0.0952209
-0.202206
-0.204852
-0.102176
0.0633216
0.211152
0.257994
0.175334
0.0127591
-0.141406
-0.215783
-0.180681
-0.0497135
0.120179
0.241659
0.243715
0.125004
-0.0449463
-0.178275
-0.21671
-0.145351
0.00749349
0.171581
0.258105
0.215047
0.0685972
-0.098274
-0.203987
-0.204769
-0.100307
0.0663081
0.213916
0.258955
0.173858
0.00978546
-0.144209
-0.217202
-0.18028
-0.047658
0.123063
0.243861
0.243861
0.123063
-0.047658
-0.18028
-0.217202
-0.144209
0.00978546
0.173858
0.258955
0.213916
0.0663081
-0.100307
-0.204769
-0.203987
-0.098274
0.0685972
0.215047
0.258105
0.171581
0.00749349
-0.145351
-0.21671
-0.178275
-0.0449463
0.125004
0.243715
0.241659
0.120179
-0.0497135
-0.180681
-0.215783
-0.141406
0.0127591
0.175334
0.257994
0.211152
0.0633216
-0.102176
-0.204852
-0.202206
-0.0952209
0.0715672
0.21638
0.257116
0.168919
0.00453301
-0.147342
-0.216961
-0.176618
-0.0419158
0.128198
0.245613
0.241334
0.11785
-0.0528043
-0.183034
-0.21634
-0.139748
0.0164293
0.180072
0.262153
0.213375
0.0641572
-0.09952
0.0739138
0.218006
0.259551
0.174577
0.013121
-0.139748
-0.215755
-0.185781
-0.0610545
0.106527
0.234545
0.251191
0.146733
-0.0187956
-0.160766
-0.217666
-0.167974
-0.0304994
0.135717
0.24655
0.238866
0.11728
-0.0495925
-0.178849
-0.216063
-0.147284
0.00104109
0.163192
0.254844
0.223039
0.0865483
-0.0790657
-0.193936
-0.211034
-0.123985
0.0330981
0.18841
0.259075
0.203731
0.0548488
-0.106842
-0.205757
-0.202498
-0.0982518
0.06521
0.210788
0.258902
0.181083
0.0226722
-0.132393
-0.213956
-0.190353
-0.07032
0.0967776
0.229623
0.254002
0.155379
-0.00934644
-0.15513
-0.218176
-0.174542
-0.0405338
0.127077
0.244199
0.244199
0.127077
-0.0405338
-0.174542
-0.218176
-0.15513
-0.00934644
0.155379
0.254002
0.229623
0.0967776
-0.07032
-0.190353
-0.213956
-0.132393
0.0226722
0.181083
0.258902
0.210788
0.06521
-0.0982518
-0.202498
-0.205757
-0.106842
0.0548488
0.203731
0.259075
0.18841
0.0330981
-0.123985
-0.211034
-0.193936
-0.0790657
0.0865483
0.223039
0.254844
0.163192
0.00104109
-0.147284
-0.216063
-0.178849
-0.0495925
0.11728
0.238866
0.24655
0.135717
-0.0304994
-0.167974
-0.217666
-0.160766
-0.0187956
0.146733
0.251191
0.234545
0.106527
-0.0610545
-0.185781
-0.215755
-0.139748
0.013121
0.174577
0.259551
0.218006
0.0739138
0.218849
0.252574
0.162755
0.00311783
-0.144478
-0.21634
-0.185781
-0.0637489
0.100849
0.230099
0.254145
0.159344
-0.00122296
-0.147024
-0.215861
-0.182311
-0.0585391
0.105456
0.231653
0.251715
0.154218
-0.00652654
-0.150292
-0.215947
-0.179205
-0.0533953
0.11039
0.233857
0.249945
0.149433
-0.0118979
-0.153887
-0.216424
-0.176401
-0.0483329
0.115547
0.236514
0.248608
0.144829
-0.017363
-0.157724
-0.217159
-0.173789
-0.0433274
0.120815
0.239387
0.247453
0.140296
-0.0228362
-0.161588
-0.217916
-0.171195
-0.0383454
0.126027
0.242146
0.246173
0.135732
-0.0281843
-0.16521
-0.218408
-0.168401
-0.0333311
0.131014
0.244458
0.244458
0.131014
-0.0333311
-0.168401
-0.218408
-0.16521
-0.0281843
0.135732
0.246173
0.242146
0.126027
-0.0383454
-0.171195
-0.217916
-0.161588
-0.0228362
0.140296
0.247453
0.239387
0.120815
-0.0433274
-0.173789
-0.217159
-0.157724
-0.017363
0.144829
0.248608
0.236514
0.115547
-0.0483329
-0.176401
-0.216424
-0.153887
-0.0118979
0.149433
0.249945
0.233857
0.11039
-0.0533953
-0.179205
-0.215947
-0.150292
-0.00652654
0.154218
0.251715
0.231653
0.105456
-0.0585391
-0.182311
-0.215861
-0.147024
-0.00122296
0.159344
0.254145
0.230099
0.100849
-0.0637489
-0.185781
-0.21634
-0.144478
0.00311783
0.162755
0.252574
0.218849
0.240175
0.144248
-0.013322
-0.153485
-0.217803
-0.183034
-0.0610545
0.100849
0.228559
0.255401
0.166653
0.0105698
-0.136497
-0.213157
-0.191829
-0.0799699
0.079672
0.215456
0.257491
0.18265
0.031811
-0.120016
-0.207945
-0.199702
-0.0981636
0.0585382
0.201549
0.258337
0.197725
0.0529504
-0.102857
-0.201619
-0.206417
-0.115575
0.0373916
0.1867
0.257772
0.211742
0.0739375
-0.0849786
-0.194082
-0.211869
-0.132143
0.0161916
0.17074
0.255543
0.224495
0.0947223
-0.0662598
-0.18511
-0.215819
-0.147688
-0.00502426
0.15349
0.251293
0.235629
0.115152
-0.0465991
-0.174434
-0.217936
-0.161904
-0.0260733
0.134889
0.244678
0.244678
0.134889
-0.0260733
-0.161904
-0.217936
-0.174434
-0.0465991
0.115152
0.235629
0.251293
0.15349
-0.00502426
-0.147688
-0.215819
-0.18511
-0.0662598
0.0947223
0.224495
0.255543
0.17074
0.0161916
-0.132143
-0.211869
-0.194082
-0.0849786
0.0739375
0.211742
0.257772
0.1867
0.0373916
-0.115575
-0.206417
-0.201619
-0.102857
0.0529504
0.197725
0.258337
0.201549
0.0585382
-0.0981636
-0.199702
-0.207945
-0.120016
0.031811
0.18265
0.257491
0.215456
0.079672
-0.0799699
-0.191829
-0.213157
-0.136497
0.0105698
0.166653
0.255401
0.228559
0.100849
-0.0610545
-0.183034
-0.217803
-0.153485
-0.013322
0.144248
0.240175
0.123051
-0.033985
-0.165223
-0.21909
-0.176967
-0.0528043
0.106527
0.230099
0.255401
0.169045
0.0164838
-0.129907
-0.210716
-0.197731
-0.0953533
0.0592051
0.200237
0.25865
0.203522
0.0642343
-0.0907145
-0.195184
-0.211086
-0.133136
0.0113268
0.163775
0.252262
0.230619
0.110442
-0.04737
-0.172212
-0.216441
-0.165048
-0.0355478
0.122061
0.23644
0.249186
0.153419
-0.00115084
-0.142317
-0.213599
-0.190203
-0.0799333
0.0765683
0.211638
0.258226
0.191415
0.0465076
-0.106117
-0.202394
-0.207725
-0.120303
0.0289717
0.178631
0.256924
0.222543
0.0938575
-0.0644761
-0.182779
-0.216782
-0.155081
-0.0187745
0.138709
0.244877
0.244877
0.138709
-0.0187745
-0.155081
-0.216782
-0.182779
-0.0644761
0.0938575
0.222543
0.256924
0.178631
0.0289717
-0.120303
-0.207725
-0.202394
-0.106117
0.0465076
0.191415
0.258226
0.211638
0.0765683
-0.0799333
-0.190203
-0.213599
-0.142317
-0.00115084
0.153419
0.249186
0.23644
0.122061
-0.0355478
-0.165048
-0.216441
-0.172212
-0.04737
0.110442
0.230619
0.252262
0.163775
0.0113268
-0.133136
-0.211086
-0.195184
-0.0907145
0.0642343
0.203522
0.25865
0.200237
0.0592051
-0.0953533
-0.197731
-0.210716
-0.129907
0.0164838
0.169045
0.255401
0.230099
0.106527
-0.0528043
-0.176967
-0.21909
-0.165223
-0.033985
0.123051
-0.0536639
-0.176476
-0.218138
-0.166373
-0.0385173
0.11785
0.234545
0.254145
0.166653
0.0164838
-0.127665
-0.209306
-0.200906
-0.105244
0.0444576
0.187616
0.257316
0.218099
0.0902953
-0.0643445
-0.180344
-0.215785
-0.159201
-0.0293041
0.125135
0.236341
0.249471
0.157757
0.00727654
-0.133747
-0.210364
-0.196677
-0.0970925
0.053513
0.193637
0.257356
0.212086
0.0810752
-0.0728289
-0.184983
-0.215107
-0.153416
-0.0203426
0.133758
0.240675
0.247302
0.150132
-0.00220579
-0.141133
-0.21304
-0.19381
-0.089593
0.062941
0.200953
0.258957
0.207112
0.0720587
-0.0817099
-0.190221
-0.214957
-0.14795
-0.0114449
0.142476
0.245063
0.245063
0.142476
-0.0114449
-0.14795
-0.214957
-0.190221
-0.0817099
0.0720587
0.207112
0.258957
0.200953
0.062941
-0.089593
-0.19381
-0.21304
-0.141133
-0.00220579
0.150132
0.247302
0.240675
0.133758
-0.0203426
-0.153416
-0.215107
-0.184983
-0.0728289
0.0810752
0.212086
0.257356
0.193637
0.053513
-0.0970925
-0.196677
-0.210364
-0.133747
0.00727654
0.157757
0.249471
0.236341
0.125135
-0.0293041
-0.159201
-0.215785
-0.180344
-0.0643445
0.0902953
0.218099
0.257316
0.187616
0.0444576
-0.105244
-0.200906
-0.209306
-0.127665
0.0164838
0.166653
0.254145
0.234545
0.11785
-0.0385173
-0.166373
-0.218138
-0.176476
-0.0536639
-0.18402
-0.21246
-0.149691
-0.0175812
0.134628
0.241334
0.251191
0.159344
0.0105698
-0.129907
-0.209306
-0.201902
-0.110072
0.0355847
0.178672
0.255171
0.227679
0.110035
-0.0422248
-0.165592
-0.216073
-0.177755
-0.0626853
0.0888528
0.214922
0.256933
0.194053
0.0572977
-0.0911688
-0.192588
-0.212496
-0.144704
-0.0110759
0.139066
0.24119
0.246302
0.151817
0.00334521
-0.134464
-0.209961
-0.198546
-0.103731
0.0427148
0.183704
0.2558
0.223537
0.102939
-0.04938
-0.170258
-0.216817
-0.174371
-0.0561999
0.0961618
0.22001
0.257371
0.189555
0.0499605
-0.0982038
-0.19674
-0.212472
-0.140526
-0.00409287
0.146191
0.245242
0.245242
0.146191
-0.00409287
-0.140526
-0.212472
-0.19674
-0.0982038
0.0499605
0.189555
0.257371
0.22001
0.0961618
-0.0561999
-0.174371
-0.216817
-0.170258
-0.04938
0.102939
0.223537
0.2558
0.183704
0.0427148
-0.103731
-0.198546
-0.209961
-0.134464
0.00334521
0.151817
0.246302
0.24119
0.139066
-0.0110759
-0.144704
-0.212496
-0.192588
-0.0911688
0.0572977
0.194053
0.256933
0.214922
0.0888528
-0.0626853
-0.177755
-0.216073
-0.165592
-0.0422248
0.110035
0.227679
0.255171
0.178672
0.0355847
-0.110072
-0.201902
-0.209306
-0.129907
0.0105698
0.159344
0.251191
0.241334
0.134628
-0.0175812
-0.149691
-0.21246
-0.18402
-0.200926
-0.125997
0.0101638
0.156176
0.249346
0.245613
0.146733
-0.00122296
-0.136497
-0.210716
-0.200906
-0.110072
0.0326256
0.17405
0.25341
0.233383
0.123751
-0.025168
-0.15259
-0.213925
-0.190349
-0.0889613
0.0569373
0.19163
0.256175
0.219976
0.100439
-0.0484876
-0.167398
-0.215593
-0.178405
-0.0670678
0.0810222
0.207923
0.257119
0.205085
0.0766318
-0.0712177
-0.180856
-0.215601
-0.164962
-0.0443549
0.104782
0.22269
0.25595
0.188518
0.0523364
-0.0931609
-0.192664
-0.213651
-0.149828
-0.0208505
0.127906
0.235418
0.252206
0.170114
0.0277629
-0.113868
-0.202317
-0.209334
-0.132823
0.00327414
0.149854
0.245415
0.245415
0.149854
0.00327414
-0.132823
-0.209334
-0.202317
-0.113868
0.0277629
0.170114
0.252206
0.235418
0.127906
-0.0208505
-0.149828
-0.213651
-0.192664
-0.0931609
0.0523364
0.188518
0.25595
0.22269
0.104782
-0.0443549
-0.164962
-0.215601
-0.180856
-0.0712177
0.0766318
0.205085
0.257119
0.207923
0.0810222
-0.0670678
-0.178405
-0.215593
-0.167398
-0.0484876
0.100439
0.219976
0.256175
0.19163
0.0569373
-0.0889613
-0.190349
-0.213925
-0.15259
-0.025168
0.123751
0.233383
0.25341
0.17405
0.0326256
-0.110072
-0.200906
-0.210716
-0.136497
-0.00122296
0.146733
0.245613
0.249346
0.156176
0.0101638
-0.125997
-0.200926
-0.0964251
0.0434027
0.180687
0.256612
0.23593
0.128198
-0.0187956
-0.147024
-0.213157
-0.197731
-0.105244
0.0355847
0.17405
0.252746
0.236023
0.131798
-0.0136236
-0.14253
-0.210934
-0.198453
-0.108713
0.0304669
0.169217
0.250309
0.2371
0.135775
-0.00864388
-0.138589
-0.209388
-0.199765
-0.112492
0.0254835
0.164984
0.248715
0.238881
0.14003
-0.00384765
-0.13513
-0.208415
-0.201569
-0.116537
0.0205752
0.161172
0.247717
0.241162
0.144495
0.00086219
-0.131933
-0.207746
-0.203628
-0.120729
0.0156532
0.157459
0.246864
0.243566
0.149049
0.00566008
-0.12862
-0.206935
-0.205554
-0.124855
0.0106491
0.153464
0.245583
0.245583
0.153464
0.0106491
-0.124855
-0.205554
-0.206935
-0.12862
0.00566008
0.149049
0.243566
0.246864
0.157459
0.0156532
-0.120729
-0.203628
-0.207746
-0.131933
0.00086219
0.144495
0.241162
0.247717
0.161172
0.0205752
-0.116537
-0.201569
-0.208415
-0.13513
-0.00384765
0.14003
0.238881
0.248715
0.164984
0.0254835
-0.112492
-0.199765
-0.209388
-0.138589
-0.00864388
0.135775
0.2371
0.250309
0.169217
0.0304669
-0.108713
-0.198453
-0.210934
-0.14253
-0.0136236
0.131798
0.236023
0.252746
0.17405
0.0355847
-0.105244
-0.197731
-0.213157
-0.147024
-0.0187956
0.128198
0.23593
0.256612
0.180687
0.0434027
-0.0964251
0.0775323
0.20437
0.259972
0.220061
0.102959
-0.0419158
-0.160766
-0.215861
-0.191829
-0.0953533
0.0444576
0.178672
0.25341
0.236023
0.134447
-0.00780983
-0.136199
-0.20829
-0.203307
-0.122677
0.00989226
0.149615
0.242048
0.247416
0.163383
0.0264574
-0.109266
-0.197182
-0.211123
-0.147259
-0.0239227
0.118672
0.226676
0.25444
0.189582
0.0605979
-0.0801531
-0.182559
-0.215146
-0.16883
-0.0566212
0.0861709
0.207379
0.256832
0.212562
0.0941832
-0.0490515
-0.164354
-0.215114
-0.186992
-0.0877474
0.0524474
0.184137
0.254121
0.231612
0.126634
-0.0161605
-0.142384
-0.210582
-0.201139
-0.116635
0.018025
0.157019
0.245747
0.245747
0.157019
0.018025
-0.116635
-0.201139
-0.210582
-0.142384
-0.0161605
0.126634
0.231612
0.254121
0.184137
0.0524474
-0.0877474
-0.186992
-0.215114
-0.164354
-0.0490515
0.0941832
0.212562
0.256832
0.207379
0.0861709
-0.0566212
-0.16883
-0.215146
-0.182559
-0.0801531
0.0605979
0.189582
0.25444
0.226676
0.118672
-0.0239227
-0.147259
-0.211123
-0.197182
-0.109266
0.0264574
0.163383
0.247416
0.242048
0.149615
0.00989226
-0.122677
-0.203307
-0.20829
-0.136199
-0.00780983
0.134447
0.236023
0.25341
0.178672
0.0444576
-0.0953533
-0.191829
-0.215861
-0.160766
-0.0419158
0.102959
0.220061
0.259972
0.20437
0.0775323
0.220743
0.255091
0.195561
0.0703142
-0.0700547
-0.176618
-0.217666
-0.182311
-0.0799699
0.0592051
0.187616
0.255171
0.233383
0.131798
-0.00780983
-0.134042
-0.206775
-0.205839
-0.131545
-0.00470099
0.134086
0.233557
0.252936
0.183966
0.0557877
-0.0817887
-0.181896
-0.215055
-0.172422
-0.0655013
0.0736131
0.196608
0.255056
0.22418
0.117205
-0.0224638
-0.144119
-0.209534
-0.200607
-0.119688
0.0103078
0.147125
0.239554
0.249346
0.172238
0.0405309
-0.0951919
-0.189361
-0.21459
-0.164152
-0.0516838
0.0886258
0.20731
0.257045
0.216561
0.103153
-0.0375193
-0.155092
-0.213247
-0.196103
-0.108175
0.025395
0.160521
0.245907
0.245907
0.160521
0.025395
-0.108175
-0.196103
-0.213247
-0.155092
-0.0375193
0.103153
0.216561
0.257045
0.20731
0.0886258
-0.0516838
-0.164152
-0.21459
-0.189361
-0.0951919
0.0405309
0.172238
0.249346
0.239554
0.147125
0.0103078
-0.119688
-0.200607
-0.209534
-0.144119
-0.0224638
0.117205
0.22418
0.255056
0.196608
0.0736131
-0.0655013
-0.172422
-0.215055
-0.181896
-0.0817887
0.0557877
0.183966
0.252936
0.233557
0.134086
-0.00470099
-0.131545
-0.205839
-0.206775
-0.134042
-0.00780983
0.131798
0.233383
0.255171
0.187616
0.0592051
-0.0799699
-0.182311
-0.217666
-0.176618
-0.0700547
0.0703142
0.195561
0.255091
0.220743
0.239035
0.160977
0.0303935
-0.102
-0.192916
-0.216961
-0.167974
-0.0585391
0.079672
0.200237
0.257316
0.227679
0.123751
-0.0136236
-0.136199
-0.206775
-0.206619
-0.13584
-0.0133891
0.123393
0.226434
0.255436
0.198517
0.0789684
-0.0578195
-0.165949
-0.214035
-0.189609
-0.0989265
0.0327678
0.163306
0.244916
0.244916
0.163315
0.0327983
-0.0988694
-0.189531
-0.213949
-0.165882
-0.05782
0.0788306
0.198189
0.254945
0.225913
0.123019
-0.0134908
-0.135643
-0.206179
-0.206203
-0.135684
-0.0134536
0.123264
0.226423
0.25559
0.198676
0.0788955
-0.0582457
-0.166681
-0.214924
-0.190458
-0.0994902
0.0327523
0.163966
0.246063
0.246063
0.163966
0.0327523
-0.0994902
-0.190458
-0.214924
-0.166681
-0.0582457
0.0788955
0.198676
0.25559
0.226423
0.123264
-0.0134536
-0.135684
-0.206203
-0.206179
-0.135643
-0.0134908
0.123019
0.225913
0.254945
0.198189
0.0788306
-0.05782
-0.165882
-0.213949
-0.189531
-0.0988694
0.0327983
0.163315
0.244916
0.244916
0.163306
0.0327678
-0.0989265
-0.189609
-0.214035
-0.165949
-0.0578195
0.0789684
0.198517
0.255436
0.226434
0.123393
-0.0133891
-0.13584
-0.206619
-0.206775
-0.136199
-0.0136236
0.123751
0.227679
0.257316
0.200237
0.079672
-0.0585391
-0.167974
-0.216961
-0.192916
-0.102
0.0303935
0.160977
0.239035
0.119675
-0.014161
-0.1351
-0.207124
-0.211597
-0.147342
-0.0304994
0.105456
0.215456
0.25865
0.218099
0.110035
-0.025168
-0.14253
-0.20829
-0.205839
-0.13584
-0.0162713
0.117956
0.221754
0.256311
0.208049
0.0960291
-0.0384365
-0.151226
-0.210246
-0.20062
-0.124717
-0.00227384
0.130407
0.228195
0.254241
0.198253
0.0821468
-0.0517339
-0.160044
-0.212341
-0.195501
-0.113626
0.0117665
0.142961
0.234753
0.252238
0.188446
0.0682038
-0.0650735
-0.16883
-0.214309
-0.190186
-0.102331
0.0259262
0.155447
0.241013
0.249799
0.178266
0.0541517
-0.0781792
-0.177096
-0.215608
-0.184217
-0.0905945
0.04009
0.167355
0.246214
0.246214
0.167355
0.04009
-0.0905945
-0.184217
-0.215608
-0.177096
-0.0781792
0.0541517
0.178266
0.249799
0.241013
0.155447
0.0259262
-0.102331
-0.190186
-0.214309
-0.16883
-0.0650735
0.0682038
0.188446
0.252238
0.234753
0.142961
0.0117665
-0.113626
-0.195501
-0.212341
-0.160044
-0.0517339
0.0821468
0.198253
0.254241
0.228195
0.130407
-0.00227384
-0.124717
-0.20062
-0.210246
-0.151226
-0.0384365
0.0960291
0.208049
0.256311
0.221754
0.117956
-0.0162713
-0.13584
-0.205839
-0.20829
-0.14253
-0.025168
0.110035
0.218099
0.25865
0.215456
0.105456
-0.0304994
-0.147342
-0.211597
-0.207124
-0.1351
-0.014161
0.119675
-0.0571003
-0.164678
-0.215582
-0.198847
-0.118767
0.00453301
0.135717
0.231653
0.257491
0.203522
0.0902953
-0.0422248
-0.15259
-0.210934
-0.203307
-0.131545
-0.0133891
0.117956
0.220128
0.256511
0.213402
0.107191
-0.0242778
-0.139111
-0.205484
-0.207172
-0.143815
-0.0309042
0.100409
0.208529
0.255184
0.222814
0.123704
-0.00649263
-0.12555
-0.199759
-0.210648
-0.155674
-0.0481031
0.08295
0.196717
0.253405
0.231727
0.139891
0.0112688
-0.111709
-0.193534
-0.213524
-0.166989
-0.0650072
0.0653597
0.184299
0.250724
0.239808
0.155672
0.0292092
-0.0971698
-0.186289
-0.215301
-0.177396
-0.0815027
0.0474012
0.170686
0.246362
0.246362
0.170686
0.0474012
-0.0815027
-0.177396
-0.215301
-0.186289
-0.0971698
0.0292092
0.155672
0.239808
0.250724
0.184299
0.0653597
-0.0650072
-0.166989
-0.213524
-0.193534
-0.111709
0.0112688
0.139891
0.231727
0.253405
0.196717
0.08295
-0.0481031
-0.155674
-0.210648
-0.199759
-0.12555
-0.00649263
0.123704
0.222814
0.255184
0.208529
0.100409
-0.0309042
-0.143815
-0.207172
-0.205484
-0.139111
-0.0242778
0.107191
0.213402
0.256511
0.220128
0.117956
-0.0133891
-0.131545
-0.203307
-0.210934
-0.15259
-0.0422248
0.0902953
0.203522
0.257491
0.231653
0.135717
0.00453301
-0.118767
-0.198847
-0.215582
-0.164678
-0.0571003
-0.185623
-0.214128
-0.175772
-0.0807673
0.0464305
0.168919
0.24655
0.251715
0.18265
0.0642343
-0.0643445
-0.165592
-0.213925
-0.198453
-0.122677
-0.00470099
0.123393
0.221754
0.256511
0.215123
0.112697
-0.0156818
-0.130554
-0.201126
-0.210738
-0.157289
-0.0531291
0.0748537
0.188785
0.250779
0.238681
0.156932
0.03429
-0.0897773
-0.180098
-0.21429
-0.184629
-0.0977938
0.0248823
0.148959
0.234819
0.252397
0.195259
0.0838969
-0.0443935
-0.151279
-0.208897
-0.203862
-0.137277
-0.0247851
0.103702
0.209016
0.255326
0.225842
0.131263
0.00434959
-0.115079
-0.194218
-0.214003
-0.170011
-0.0722301
0.0546791
0.173959
0.246506
0.246506
0.173959
0.0546791
-0.0722301
-0.170011
-0.214003
-0.194218
-0.115079
0.00434959
0.131263
0.225842
0.255326
0.209016
0.103702
-0.0247851
-0.137277
-0.203862
-0.208897
-0.151279
-0.0443935
0.0838969
0.195259
0.252397
0.234819
0.148959
0.0248823
-0.0977938
-0.184629
-0.21429
-0.180098
-0.0897773
0.03429
0.156932
0.238681
0.250779
0.188785
0.0748537
-0.0531291
-0.157289
-0.210738
-0.201126
-0.130554
-0.0156818
0.112697
0.215123
0.256511
0.221754
0.123393
-0.00470099
-0.122677
-0.198453
-0.213925
-0.165592
-0.0643445
0.0642343
0.18265
0.251715
0.24655
0.168919
0.0464305
-0.0807673
-0.175772
-0.214128
-0.185623
-0.199934
-0.140374
-0.0328359
0.0939635
0.20247
0.257116
0.238866
0.154218
0.031811
-0.0907145
-0.180344
-0.216073
-0.190349
-0.108713
0.00989226
0.134086
0.226434
0.256311
0.213402
0.112697
-0.0128022
-0.126138
-0.198134
-0.212465
-0.166124
-0.0692673
0.0545869
0.171056
0.243701
0.247912
0.182255
0.0691573
-0.0555802
-0.15682
-0.20963
-0.202357
-0.136554
-0.0270589
0.0982875
0.203078
0.253396
0.231877
0.146001
0.0244534
-0.0956837
-0.182098
-0.214407
-0.18563
-0.101933
0.0171207
0.139796
0.228898
0.254714
0.208203
0.105427
-0.0201555
-0.131779
-0.200847
-0.211722
-0.162082
-0.0627924
0.0619168
0.177172
0.246646
0.246646
0.177172
0.0619168
-0.0627924
-0.162082
-0.211722
-0.200847
-0.131779
-0.0201555
0.105427
0.208203
0.254714
0.228898
0.139796
0.0171207
-0.101933
-0.18563
-0.214407
-0.182098
-0.0956837
0.0244534
0.146001
0.231877
0.253396
0.203078
0.0982875
-0.0270589
-0.136554
-0.202357
-0.20963
-0.15682
-0.0555802
0.0691573
0.182255
0.247912
0.243701
0.171056
0.0545869
-0.0692673
-0.166124
-0.212465
-0.198134
-0.126138
-0.0128022
0.112697
0.213402
0.256311
0.226434
0.134086
0.00989226
-0.108713
-0.190349
-0.216073
-0.180344
-0.0907145
0.031811
0.154218
0.238866
0.257116
0.20247
0.0939635
-0.0328359
-0.140374
-0.199934
-0.0932995
0.0232286
0.143929
0.232319
0.25955
0.21638
0.11728
-0.00652654
-0.120016
-0.195184
-0.215785
-0.177755
-0.0889613
0.0304669
0.149615
0.233557
0.255436
0.208049
0.107191
-0.0156818
-0.126138
-0.197075
-0.213132
-0.171096
-0.0797284
0.0400003
0.156768
0.236111
0.252555
0.200656
0.0975344
-0.0249493
-0.132788
-0.199712
-0.211255
-0.165077
-0.0708446
0.0496044
0.164445
0.239507
0.250548
0.193867
0.088044
-0.0344611
-0.13994
-0.20293
-0.209895
-0.159407
-0.0620633
0.0593816
0.172515
0.243373
0.24892
0.187263
0.0785637
-0.0440466
-0.147154
-0.206147
-0.208466
-0.153629
-0.0532057
0.0691073
0.180325
0.246782
0.246782
0.180325
0.0691073
-0.0532057
-0.153629
-0.208466
-0.206147
-0.147154
-0.0440466
0.0785637
0.187263
0.24892
0.243373
0.172515
0.0593816
-0.0620633
-0.159407
-0.209895
-0.20293
-0.13994
-0.0344611
0.088044
0.193867
0.250548
0.239507
0.164445
0.0496044
-0.0708446
-0.165077
-0.211255
-0.199712
-0.132788
-0.0249493
0.0975344
0.200656
0.252555
0.236111
0.156768
0.0400003
-0.0797284
-0.171096
-0.213132
-0.197075
-0.126138
-0.0156818
0.107191
0.208049
0.255436
0.233557
0.149615
0.0304669
-0.0889613
-0.177755
-0.215785
-0.195184
-0.120016
-0.00652654
0.11728
0.21638
0.25955
0.232319
0.143929
0.0232286
-0.0932995
0.0811381
0.190105
0.252663
0.249474
0.181964
0.0715672
-0.0495925
-0.150292
-0.207945
-0.211086
-0.159201
-0.0626853
0.0569373
0.169217
0.242048
0.252936
0.198517
0.0960291
-0.0242778
-0.130554
-0.198134
-0.213132
-0.172697
-0.0848609
0.0312322
0.146821
0.229616
0.254399
0.213335
0.119452
0.000871196
-0.110212
-0.1872
-0.213811
-0.184852
-0.106008
0.00593847
0.124004
0.215968
0.254212
0.226627
0.141965
0.0259483
-0.0891669
-0.175019
-0.212979
-0.19553
-0.126051
-0.0189777
0.100595
0.200808
0.252027
0.238106
0.163456
0.0510753
-0.0670787
-0.161102
-0.210097
-0.204248
-0.144672
-0.0434865
0.0762439
0.183417
0.246914
0.246914
0.183417
0.0762439
-0.0434865
-0.144672
-0.204248
-0.210097
-0.161102
-0.0670787
0.0510753
0.163456
0.238106
0.252027
0.200808
0.100595
-0.0189777
-0.126051
-0.19553
-0.212979
-0.175019
-0.0891669
0.0259483
0.141965
0.226627
0.254212
0.215968
0.124004
0.00593847
-0.106008
-0.184852
-0.213811
-0.1872
-0.110212
0.000871196
0.119452
0.213335
0.254399
0.229616
0.146821
0.0312322
-0.0848609
-0.172697
-0.213132
-0.198134
-0.130554
-0.0242778
0.0960291
0.198517
0.252936
0.242048
0.169217
0.0569373
-0.0626853
-0.159201
-0.211086
-0.207945
-0.150292
-0.0495925
0.0715672
0.181964
0.249474
0.252663
0.190105
0.0811381
0.222582
0.25629
0.222609
0.134245
0.0179372
-0.0952209
-0.178849
-0.215947
-0.199702
-0.133136
-0.0293041
0.0888528
0.19163
0.250309
0.247416
0.183966
0.0789684
-0.0384365
-0.139111
-0.201126
-0.212465
-0.171096
-0.0848609
0.0283096
0.141732
0.225304
0.254841
0.221445
0.135275
0.0212101
-0.0906903
-0.174282
-0.212333
-0.197687
-0.133067
-0.0312041
0.0854
0.187545
0.246816
0.245567
0.184175
0.0808721
-0.0357022
-0.136487
-0.199326
-0.211881
-0.171821
-0.0867033
0.0258301
0.139333
0.223743
0.254614
0.222558
0.137258
0.023361
-0.0890232
-0.173532
-0.21268
-0.199082
-0.135236
-0.0336519
0.0833196
0.186446
0.247042
0.247042
0.186446
0.0833196
-0.0336519
-0.135236
-0.199082
-0.21268
-0.173532
-0.0890232
0.023361
0.137258
0.222558
0.254614
0.223743
0.139333
0.0258301
-0.0867033
-0.171821
-0.211881
-0.199326
-0.136487
-0.0357022
0.0808721
0.184175
0.245567
0.246816
0.187545
0.0854
-0.0312041
-0.133067
-0.197687
-0.212333
-0.174282
-0.0906903
0.0212101
0.135275
0.221445
0.254841
0.225304
0.141732
0.0283096
-0.0848609
-0.171096
-0.212465
-0.201126
-0.139111
-0.0384365
0.0789684
0.183966
0.247416
0.250309
0.19163
0.0888528
-0.0293041
-0.133136
-0.199702
-0.215947
-0.178849
-0.0952209
0.0179372
0.134245
0.222609
0.25629
0.222582
0.237835
0.176763
0.0739241
-0.0410426
-0.140026
-0.202206
-0.216063