# vtk DataFile Version 3.0
Scalar Field Data
ASCII
DATASET STRUCTURED_POINTS
DIMENSIONS 64 64 1
ORIGIN 0 0 0
SPACING 0.015873 0.015873 1
POINT_DATA 4096
SCALARS scalars double
LOOKUP_TABLE default
-0.00334266
-0.00333958
-0.0033352
-0.00332414
-0.00331098
-0.00329018
-0.00326622
-0.00323352
-0.00319659
-0.00314988
-0.00309795
-0.00303536
-0.00296677
-0.00288687
-0.00280045
-0.00270236
-0.00259754
-0.00248101
-0.00235788
-0.00222332
-0.00208262
-0.00193112
-0.00177425
-0.00160751
-0.00143649
-0.0012568
-0.00107417
-0.000884307
-0.000693046
-0.000496185
-0.000299613
-9.91828e-05
9.91828e-05
0.000299613
0.000496185
0.000693046
0.000884307
0.00107417
0.0012568
0.00143649
0.00160751
0.00177425
0.00193112
0.00208262
0.00222332
0.00235788
0.00248101
0.00259754
0.00270236
0.00280045
0.00288687
0.00296677
0.00303536
0.00309795
0.00314988
0.00319659
0.00323352
0.00326622
0.00329018
0.00331098
0.00332414
0.0033352
0.00333958
0.00334266
-0.00333958
0.0065911
0.0164293
0.0260727
0.0354311
0.044407
0.0529171
0.0608725
0.0682
0.0748228
0.0806808
0.0857119
0.089872
0.0931158
0.0954169
0.0967487
0.0971038
0.0964747
0.0948738
0.092313
0.0888238
0.0844369
0.0792021
0.0731673
0.0663988
0.0589597
0.0509301
0.0423859
0.033418
0.0241118
0.0145657
0.00487071
-0.00487071
-0.0145657
-0.0241118
-0.033418
-0.0423859
-0.0509301
-0.0589597
-0.0663988
-0.0731673
-0.0792021
-0.0844369
-0.0888238
-0.092313
-0.0948738
-0.0964747
-0.0971038
-0.0967487
-0.0954169
-0.0931158
-0.089872
-0.0857119
-0.0806808
-0.0748228
-0.0682
-0.0608725
-0.0529171
-0.044407
-0.0354311
-0.0260727
-0.0164293
-0.0065911
0.00333958
-0.0033352
0.0164293
0.0359984
0.0551831
0.0737883
0.0916349
0.108541
0.124345
0.138885
0.152023
0.163624
0.173579
0.181784
0.188165
0.192654
0.195212
0.195809
0.194447
0.191134
0.185909
0.178821
0.169946
0.159368
0.147199
0.133555
0.118578
0.102413
0.0852269
0.0671863
0.0484767
0.0292802
0.00979352
-0.00979352
-0.0292802
-0.0484767
-0.0671863
-0.0852269
-0.102413
-0.118578
-0.133555
-0.147199
-0.159368
-0.169946
-0.178821
-0.185909
-0.191134
-0.194447
-0.195809
-0.195212
-0.192654
-0.188165
-0.181784
-0.173579
-0.163624
-0.152023
-0.138885
-0.124345
-0.108541
-0.0916349
-0.0737883
-0.0551831
-0.0359984
-0.0164293
0.0033352
-0.00332414
0.0260727
0.0551831
0.0837132
0.111385
0.13792
0.163059
0.186549
0.208162
0.22768
0.244914
0.259688
0.271863
0.281313
0.28795
0.291704
0.292544
0.290458
0.285472
0.277632
0.267022
0.253743
0.237934
0.219748
0.199371
0.177002
0.152869
0.127209
0.100282
0.0723519
0.0437029
0.0146154
-0.0146154
-0.0437029
-0.0723519
-0.100282
-0.127209
-0.152869
-0.177002
-0.199371
-0.219748
-0.237934
-0.253743
-0.267022
-0.277632
-0.285472
-0.290458
-0.292544
-0.291704
-0.28795
-0.281313
-0.271863
-0.259688
-0.244914
-0.22768
-0.208162
-0.186549
-0.163059
-0.13792
-0.111385
-0.0837132
-0.0551831
-0.0260727
0.00332414
-0.00331098
0.0354311
0.0737883
0.111385
0.147844
0.182808
0.215925
0.246873
0.27534
0.301048
0.323738
0.343191
0.359209
0.37164
0.380355
0.385274
0.386344
0.38356
0.376947
0.366575
0.352545
0.335001
0.314114
0.290098
0.263187
0.233655
0.201792
0.167919
0.132371
0.0955053
0.0576856
0.0192935
-0.0192935
-0.0576856
-0.0955053
-0.132371
-0.167919
-0.201792
-0.233655
-0.263187
-0.290098
-0.314114
-0.335001
-0.352545
-0.366575
-0.376947
-0.38356
-0.386344
-0.385274
-0.380355
-0.37164
-0.359209
-0.343191
-0.323738
-0.301048
-0.27534
-0.246873
-0.215925
-0.182808
-0.147844
-0.111385
-0.0737883
-0.0354311
0.00331098
-0.00329018
0.044407
0.0916349
0.13792
0.182808
0.225848
0.26662
0.304713
0.339755
0.371393
0.39932
0.423253
0.442961
0.458244
0.468956
0.474987
0.476282
0.472825
0.464656
0.451852
0.434547
0.412909
0.387159
0.357548
0.324377
0.287972
0.248701
0.20695
0.16314
0.117702
0.0710946
0.0237763
-0.0237763
-0.0710946
-0.117702
-0.16314
-0.20695
-0.248701
-0.287972
-0.324377
-0.357548
-0.387159
-0.412909
-0.434547
-0.451852
-0.464656
-0.472825
-0.476282
-0.474987
-0.468956
-0.458244
-0.442961
-0.423253
-0.39932
-0.371393
-0.339755
-0.304713
-0.26662
-0.225848
-0.182808
-0.13792
-0.0916349
-0.044407
0.00329018
-0.00326622
0.0529171
0.108541
0.163059
0.215925
0.26662
0.314635
0.3595
0.400764
0.438024
0.470905
0.499086
0.522283
0.540272
0.55287
0.559958
0.561461
0.55737
0.547723
0.532621
0.512209
0.486698
0.456336
0.421432
0.382328
0.339418
0.293127
0.243918
0.192279
0.138727
0.0837917
0.0280244
-0.0280244
-0.0837917
-0.138727
-0.192279
-0.243918
-0.293127
-0.339418
-0.382328
-0.421432
-0.456336
-0.486698
-0.512209
-0.532621
-0.547723
-0.55737
-0.561461
-0.559958
-0.55287
-0.540272
-0.522283
-0.499086
-0.470905
-0.438024
-0.400764
-0.3595
-0.314635
-0.26662
-0.215925
-0.163059
-0.108541
-0.0529171
0.00326622
-0.00323352
0.0608725
0.124345
0.186549
0.246873
0.304713
0.3595
0.410685
0.457767
0.500273
0.537786
0.56993
0.596392
0.616904
0.631269
0.639339
0.641041
0.636353
0.625329
0.608074
0.584765
0.555631
0.520966
0.481111
0.436468
0.387478
0.334632
0.278452
0.219503
0.158367
0.095656
0.0319907
-0.0319907
-0.095656
-0.158367
-0.219503
-0.278452
-0.334632
-0.387478
-0.436468
-0.481111
-0.520966
-0.555631
-0.584765
-0.608074
-0.625329
-0.636353
-0.641041
-0.639339
-0.631269
-0.616904
-0.596392
-0.56993
-0.537786
-0.500273
-0.457767
-0.410685
-0.3595
-0.304713
-0.246873
-0.186549
-0.124345
-0.0608725
0.00323352
-0.00319659
0.0682
0.138885
0.208162
0.27534
0.339755
0.400764
0.457767
0.510193
0.557528
0.599296
0.63509
0.664548
0.687384
0.703368
0.712347
0.714226
0.708995
0.696699
0.677469
0.651491
0.619028
0.580401
0.535998
0.486257
0.431678
0.3728
0.310214
0.244538
0.176431
0.106565
0.0356406
-0.0356406
-0.106565
-0.176431
-0.244538
-0.310214
-0.3728
-0.431678
-0.486257
-0.535998
-0.580401
-0.619028
-0.651491
-0.677469
-0.696699
-0.708995
-0.714226
-0.712347
-0.703368
-0.687384
-0.664548
-0.63509
-0.599296
-0.557528
-0.510193
-0.457767
-0.400764
-0.339755
-0.27534
-0.208162
-0.138885
-0.0682
0.00319659
-0.00314988
0.0748228
0.152023
0.22768
0.301048
0.371393
0.438024
0.500273
0.557528
0.609216
0.65483
0.693912
0.726079
0.751009
0.768459
0.778252
0.780297
0.774568
0.76113
0.740112
0.711728
0.676257
0.634057
0.585543
0.531204
0.471576
0.407258
0.338884
0.26714
0.192735
0.116414
0.0389331
-0.0389331
-0.116414
-0.192735
-0.26714
-0.338884
-0.407258
-0.471576
-0.531204
-0.585543
-0.634057
-0.676257
-0.711728
-0.740112
-0.76113
-0.774568
-0.780297
-0.778252
-0.768459
-0.751009
-0.726079
-0.693912
-0.65483
-0.609216
-0.557528
-0.500273
-0.438024
-0.371393
-0.301048
-0.22768
-0.152023
-0.0748228
0.00314988
-0.00309795
0.0806808
0.163624
0.244914
0.323738
0.39932
0.470905
0.537786
0.599296
0.65483
0.703831
0.745819
0.780371
0.807152
0.82589
0.836406
0.838591
0.832428
0.817977
0.795385
0.764874
0.726752
0.681395
0.62926
0.57086
0.506781
0.437658
0.364181
0.287079
0.207122
0.125103
0.0418405
-0.0418405
-0.125103
-0.207122
-0.287079
-0.364181
-0.437658
-0.506781
-0.57086
-0.62926
-0.681395
-0.726752
-0.764874
-0.795385
-0.817977
-0.832428
-0.838591
-0.836406
-0.82589
-0.807152
-0.780371
-0.745819
-0.703831
-0.65483
-0.599296
-0.537786
-0.470905
-0.39932
-0.323738
-0.244914
-0.163624
-0.0806808
0.00309795
-0.00303536
0.0857119
0.173579
0.259688
0.343191
0.423253
0.499086
0.56993
0.63509
0.693912
0.745819
0.79029
0.82689
0.855251
0.875097
0.886226
0.888535
0.881996
0.86668
0.842736
0.810406
0.77001
0.721953
0.666709
0.604834
0.536938
0.463703
0.385851
0.304163
0.219446
0.132548
0.0443288
-0.0443288
-0.132548
-0.219446
-0.304163
-0.385851
-0.463703
-0.536938
-0.604834
-0.666709
-0.721953
-0.77001
-0.810406
-0.842736
-0.86668
-0.881996
-0.888535
-0.886226
-0.875097
-0.855251
-0.82689
-0.79029
-0.745819
-0.693912
-0.63509
-0.56993
-0.499086
-0.423253
-0.343191
-0.259688
-0.173579
-0.0857119
0.00303536
-0.00296677
0.089872
0.181784
0.271863
0.359209
0.442961
0.522283
0.596392
0.664548
0.726079
0.780371
0.82689
0.865169
0.894833
0.915585
0.927224
0.92963
0.922785
0.906753
0.881699
0.847869
0.805604
0.755321
0.697524
0.632786
0.561754
0.48513
0.403683
0.318216
0.229587
0.138671
0.0463784
-0.0463784
-0.138671
-0.229587
-0.318216
-0.403683
-0.48513
-0.561754
-0.632786
-0.697524
-0.755321
-0.805604
-0.847869
-0.881699
-0.906753
-0.922785
-0.92963
-0.927224
-0.915585
-0.894833
-0.865169
-0.82689
-0.780371
-0.726079
-0.664548
-0.596392
-0.522283
-0.442961
-0.359209
-0.271863
-0.181784
-0.089872
0.00296677
-0.00288687
0.0931158
0.188165
0.281313
0.37164
0.458244
0.540272
0.616904
0.687384
0.751009
0.807152
0.855251
0.894833
0.925503
0.94696
0.958988
0.961472
0.954385
0.937802
0.911884
0.876895
0.833178
0.781174
0.721395
0.654442
0.580976
0.501732
0.417494
0.329106
0.237441
0.143417
0.047964
-0.047964
-0.143417
-0.237441
-0.329106
-0.417494
-0.501732
-0.580976
-0.654442
-0.721395
-0.781174
-0.833178
-0.876895
-0.911884
-0.937802
-0.954385
-0.961472
-0.958988
-0.94696
-0.925503
-0.894833
-0.855251
-0.807152
-0.751009
-0.687384
-0.616904
-0.540272
-0.458244
-0.37164
-0.281313
-0.188165
-0.0931158
0.00288687
-0.00280045
0.0954169
0.192654
0.28795
0.380355
0.468956
0.55287
0.631269
0.703368
0.768459
0.82589
0.875097
0.915585
0.94696
0.968905
0.981207
0.983741
0.976488
0.959514
0.932996
0.897191
0.852463
0.799251
0.73809
0.669584
0.594419
0.513339
0.427154
0.336718
0.242936
0.146734
0.0490748
-0.0490748
-0.146734
-0.242936
-0.336718
-0.427154
-0.513339
-0.594419
-0.669584
-0.73809
-0.799251
-0.852463
-0.897191
-0.932996
-0.959514
-0.976488
-0.983741
-0.981207
-0.968905
-0.94696
-0.915585
-0.875097
-0.82589
-0.768459
-0.703368
-0.631269
-0.55287
-0.468956
-0.380355
-0.28795
-0.192654
-0.0954169
0.00280045
-0.00270236
0.0967487
0.195212
0.291704
0.385274
0.474987
0.559958
0.639339
0.712347
0.778252
0.836406
0.886226
0.927224
0.958988
0.981207
0.993658
0.996222
0.98887
0.971681
0.94482
0.908562
0.863263
0.809377
0.747438
0.678066
0.601946
0.51984
0.432562
0.340983
0.24601
0.148593
0.0496949
-0.0496949
-0.148593
-0.24601
-0.340983
-0.432562
-0.51984
-0.601946
-0.678066
-0.747438
-0.809377
-0.863263
-0.908562
-0.94482
-0.971681
-0.98887
-0.996222
-0.993658
-0.981207
-0.958988
-0.927224
-0.886226
-0.836406
-0.778252
-0.712347
-0.639339
-0.559958
-0.474987
-0.385274
-0.291704
-0.195212
-0.0967487
0.00270236
-0.00259754
0.0971038
0.195809
0.292544
0.386344
0.476282
0.561461
0.641041
0.714226
0.780297
0.838591
0.888535
0.92963
0.961472
0.983741
0.996222
0.998786
0.991414
0.974175
0.947246
0.910891
0.865476
0.811449
0.749352
0.679799
0.603486
0.521168
0.433669
0.341853
0.24664
0.148971
0.0498231
-0.0498231
-0.148971
-0.24664
-0.341853
-0.433669
-0.521168
-0.603486
-0.679799
-0.749352
-0.811449
-0.865476
-0.910891
-0.947246
-0.974175
-0.991414
-0.998786
-0.996222
-0.983741
-0.961472
-0.92963
-0.888535
-0.838591
-0.780297
-0.714226
-0.641041
-0.561461
-0.476282
-0.386344
-0.292544
-0.195809
-0.0971038
0.00259754
-0.00248101
0.0964747
0.194447
0.290458
0.38356
0.472825
0.55737
0.636353
0.708995
0.774568
0.832428
0.881996
0.922785
0.954385
0.976488
0.98887
0.991414
0.984092
0.96698
0.940245
0.904159
0.859076
0.80545
0.743809
0.674772
0.59902
0.517313
0.430459
0.339325
0.244814
0.14787
0.0494531
-0.0494531
-0.14787
-0.244814
-0.339325
-0.430459
-0.517313
-0.59902
-0.674772
-0.743809
-0.80545
-0.859076
-0.904159
-0.940245
-0.96698
-0.984092
-0.991414
-0.98887
-0.976488
-0.954385
-0.922785
-0.881996
-0.832428
-0.774568
-0.708995
-0.636353
-0.55737
-0.472825
-0.38356
-0.290458
-0.194447
-0.0964747
0.00248101
-0.00235788
0.0948738
0.191134
0.285472
0.376947
0.464656
0.547723
0.625329
0.696699
0.76113
0.817977
0.86668
0.906753
0.937802
0.959514
0.971681
0.974175
0.96698
0.950161
0.923892
0.88843
0.844132
0.791435
0.730869
0.66303
0.588598
0.50831
0.422969
0.333419
0.240555
0.145295
0.0485937
-0.0485937
-0.145295
-0.240555
-0.333419
-0.422969
-0.50831
-0.588598
-0.66303
-0.730869
-0.791435
-0.844132
-0.88843
-0.923892
-0.950161
-0.96698
-0.974175
-0.971681
-0.959514
-0.937802
-0.906753
-0.86668
-0.817977
-0.76113
-0.696699
-0.625329
-0.547723
-0.464656
-0.376947
-0.285472
-0.191134
-0.0948738
0.00235788
-0.00222332
0.092313
0.185909
0.277632
0.366575
0.451852
0.532621
0.608074
0.677469
0.740112
0.795385
0.842736
0.881699
0.911884
0.932996
0.94482
0.947246
0.940245
0.923892
0.898346
0.863865
0.820789
0.769551
0.710656
0.644695
0.572319
0.494254
0.41127
0.324199
0.2339
0.141278
0.0472485
-0.0472485
-0.141278
-0.2339
-0.324199
-0.41127
-0.494254
-0.572319
-0.644695
-0.710656
-0.769551
-0.820789
-0.863865
-0.898346
-0.923892
-0.940245
-0.947246
-0.94482
-0.932996
-0.911884
-0.881699
-0.842736
-0.795385
-0.740112
-0.677469
-0.608074
-0.532621
-0.451852
-0.366575
-0.277632
-0.185909
-0.092313
0.00222332
-0.00208262
0.0888238
0.178821
0.267022
0.352545
0.434547
0.512209
0.584765
0.651491
0.711728
0.764874
0.810406
0.847869
0.876895
0.897191
0.908562
0.910891
0.904159
0.88843
0.863865
0.830705
0.789283
0.740009
0.683377
0.619945
0.55035
0.475279
0.395483
0.311751
0.224922
0.135853
0.0454359
-0.0454359
-0.135853
-0.224922
-0.311751
-0.395483
-0.475279
-0.55035
-0.619945
-0.683377
-0.740009
-0.789283
-0.830705
-0.863865
-0.88843
-0.904159
-0.910891
-0.908562
-0.897191
-0.876895
-0.847869
-0.810406
-0.764874
-0.711728
-0.651491
-0.584765
-0.512209
-0.434547
-0.352545
-0.267022
-0.178821
-0.0888238
0.00208262
-0.00193112
0.0844369
0.169946
0.253743
0.335001
0.412909
0.486698
0.555631
0.619028
0.676257
0.726752
0.77001
0.805604
0.833178
0.852463
0.863263
0.865476
0.859076
0.844132
0.820789
0.789283
0.749925
0.703109
0.649298
0.589031
0.522904
0.451579
0.37576
0.296206
0.213704
0.12908
0.0431688
-0.0431688
-0.12908
-0.213704
-0.296206
-0.37576
-0.451579
-0.522904
-0.589031
-0.649298
-0.703109
-0.749925
-0.789283
-0.820789
-0.844132
-0.859076
-0.865476
-0.863263
-0.852463
-0.833178
-0.805604
-0.77001
-0.726752
-0.676257
-0.619028
-0.555631
-0.486698
-0.412909
-0.335001
-0.253743
-0.169946
-0.0844369
0.00193112
-0.00177425
0.0792021
0.159368
0.237934
0.314114
0.387159
0.456336
0.520966
0.580401
0.634057
0.681395
0.721953
0.755321
0.781174
0.799251
0.809377
0.811449
0.80545
0.791435
0.769551
0.740009
0.703109
0.659213
0.608764
0.552257
0.49026
0.423385
0.352302
0.277712
0.200364
0.12102
0.0404749
-0.0404749
-0.12102
-0.200364
-0.277712
-0.352302
-0.423385
-0.49026
-0.552257
-0.608764
-0.659213
-0.703109
-0.740009
-0.769551
-0.791435
-0.80545
-0.811449
-0.809377
-0.799251
-0.781174
-0.755321
-0.721953
-0.681395
-0.634057
-0.580401
-0.520966
-0.456336
-0.387159
-0.314114
-0.237934
-0.159368
-0.0792021
0.00177425
-0.00160751
0.0731673
0.147199
0.219748
0.290098
0.357548
0.421432
0.481111
0.535998
0.585543
0.62926
0.666709
0.697524
0.721395
0.73809
0.747438
0.749352
0.743809
0.730869
0.710656
0.683377
0.649298
0.608764
0.562172
0.509992
0.452738
0.390983
0.325338
0.256459
0.185028
0.111759
0.037376
-0.037376
-0.111759
-0.185028
-0.256459
-0.325338
-0.390983
-0.452738
-0.509992
-0.562172
-0.608764
-0.649298
-0.683377
-0.710656
-0.730869
-0.743809
-0.749352
-0.747438
-0.73809
-0.721395
-0.697524
-0.666709
-0.62926
-0.585543
-0.535998
-0.481111
-0.421432
-0.357548
-0.290098
-0.219748
-0.147199
-0.0731673
0.00160751
-0.00143649
0.0663988
0.133555
0.199371
0.263187
0.324377
0.382328
0.436468
0.486257
0.531204
0.57086
0.604834
0.632786
0.654442
0.669584
0.678066
0.679799
0.674772
0.66303
0.644695
0.619945
0.589031
0.552257
0.509992
0.462653
0.410715
0.35469
0.29514
0.232653
0.167854
0.101384
0.0339079
-0.0339079
-0.101384
-0.167854
-0.232653
-0.29514
-0.35469
-0.410715
-0.462653
-0.509992
-0.552257
-0.589031
-0.619945
-0.644695
-0.66303
-0.674772
-0.679799
-0.678066
-0.669584
-0.654442
-0.632786
-0.604834
-0.57086
-0.531204
-0.486257
-0.436468
-0.382328
-0.324377
-0.263187
-0.199371
-0.133555
-0.0663988
0.00143649
-0.0012568
0.0589597
0.118578
0.177002
0.233655
0.287972
0.339418
0.387478
0.431678
0.471576
0.506781
0.536938
0.561754
0.580976
0.594419
0.601946
0.603486
0.59902
0.588598
0.572319
0.55035
0.522904
0.49026
0.452738
0.410715
0.364606
0.314873
0.262006
0.206536
0.149009
0.0900034
0.0301001
-0.0301001
-0.0900034
-0.149009
-0.206536
-0.262006
-0.314873
-0.364606
-0.410715
-0.452738
-0.49026
-0.522904
-0.55035
-0.572319
-0.588598
-0.59902
-0.603486
-0.601946
-0.594419
-0.580976
-0.561754
-0.536938
-0.506781
-0.471576
-0.431678
-0.387478
-0.339418
-0.287972
-0.233655
-0.177002
-0.118578
-0.0589597
0.0012568
-0.00107417
0.0509301
0.102413
0.152869
0.201792
0.248701
0.293127
0.334632
0.3728
0.407258
0.437658
0.463703
0.48513
0.501732
0.513339
0.51984
0.521168
0.517313
0.50831
0.494254
0.475279
0.451579
0.423385
0.390983
0.35469
0.314873
0.271921
0.226268
0.178362
0.128685
0.0777252
0.0259954
-0.0259954
-0.0777252
-0.128685
-0.178362
-0.226268
-0.271921
-0.314873
-0.35469
-0.390983
-0.423385
-0.451579
-0.475279
-0.494254
-0.50831
-0.517313
-0.521168
-0.51984
-0.513339
-0.501732
-0.48513
-0.463703
-0.437658
-0.407258
-0.3728
-0.334632
-0.293127
-0.248701
-0.201792
-0.152869
-0.102413
-0.0509301
0.00107417
-0.000884307
0.0423859
0.0852269
0.127209
0.167919
0.20695
0.243918
0.278452
0.310214
0.338884
0.364181
0.385851
0.403683
0.417494
0.427154
0.432562
0.433669
0.430459
0.422969
0.41127
0.395483
0.37576
0.352302
0.325338
0.29514
0.262006
0.226268
0.188277
0.148417
0.107078
0.0646766
0.0216297
-0.0216297
-0.0646766
-0.107078
-0.148417
-0.188277
-0.226268
-0.262006
-0.29514
-0.325338
-0.352302
-0.37576
-0.395483
-0.41127
-0.422969
-0.430459
-0.433669
-0.432562
-0.427154
-0.417494
-0.403683
-0.385851
-0.364181
-0.338884
-0.310214
-0.278452
-0.243918
-0.20695
-0.167919
-0.127209
-0.0852269
-0.0423859
0.000884307
-0.000693046
0.033418
0.0671863
0.100282
0.132371
0.16314
0.192279
0.219503
0.244538
0.26714
0.287079
0.304163
0.318216
0.329106
0.336718
0.340983
0.341853
0.339325
0.333419
0.324199
0.311751
0.296206
0.277712
0.256459
0.232653
0.206536
0.178362
0.148417
0.116993
0.0844086
0.0509823
0.0170514
-0.0170514
-0.0509823
-0.0844086
-0.116993
-0.148417
-0.178362
-0.206536
-0.232653
-0.256459
-0.277712
-0.296206
-0.311751
-0.324199
-0.333419
-0.339325
-0.341853
-0.340983
-0.336718
-0.329106
-0.318216
-0.304163
-0.287079
-0.26714
-0.244538
-0.219503
-0.192279
-0.16314
-0.132371
-0.100282
-0.0671863
-0.033418
0.000693046
-0.000496185
0.0241118
0.0484767
0.0723519
0.0955053
0.117702
0.138727
0.158367
0.176431
0.192735
0.207122
0.219446
0.229587
0.237441
0.242936
0.24601
0.24664
0.244814
0.240555
0.2339
0.224922
0.213704
0.200364
0.185028
0.167854
0.149009
0.128685
0.107078
0.0844086
0.0608976
0.0367835
0.0123011
-0.0123011
-0.0367835
-0.0608976
-0.0844086
-0.107078
-0.128685
-0.149009
-0.167854
-0.185028
-0.200364
-0.213704
-0.224922
-0.2339
-0.240555
-0.244814
-0.24664
-0.24601
-0.242936
-0.237441
-0.229587
-0.219446
-0.207122
-0.192735
-0.176431
-0.158367
-0.138727
-0.117702
-0.0955053
-0.0723519
-0.0484767
-0.0241118
0.000496185
-0.000299613
0.0145657
0.0292802
0.0437029
0.0576856
0.0710946
0.0837917
0.095656
0.106565
0.116414
0.125103
0.132548
0.138671
0.143417
0.146734
0.148593
0.148971
0.14787
0.145295
0.141278
0.135853
0.12908
0.12102
0.111759
0.101384
0.0900034
0.0777252
0.0646766
0.0509823
0.0367835
0.0222164
0.00743094
-0.00743094
-0.0222164
-0.0367835
-0.0509823
-0.0646766
-0.0777252
-0.0900034
-0.101384
-0.111759
-0.12102
-0.12908
-0.135853
-0.141278
-0.145295
-0.14787
-0.148971
-0.148593
-0.146734
-0.143417
-0.138671
-0.132548
-0.125103
-0.116414
-0.106565
-0.095656
-0.0837917
-0.0710946
-0.0576856
-0.0437029
-0.0292802
-0.0145657
0.000299613
-9.91828e-05
0.00487071
0.00979352
0.0146154
0.0192935
0.0237763
0.0280244
0.0319907
0.0356406
0.0389331
0.0418405
0.0443288
0.0463784
0.047964
0.0490748
0.0496949
0.0498231
0.0494531
0.0485937
0.0472485
0.0454359
0.0431688
0.0404749
0.037376
0.0339079
0.0301001
0.0259954
0.0216297
0.0170514
0.0123011
0.00743094
0.00248438
-0.00248438
-0.00743094
-0.0123011
-0.0170514
-0.0216297
-0.0259954
-0.0301001
-0.0339079
-0.037376
-0.0404749
-0.0431688
-0.0454359
-0.0472485
-0.0485937
-0.0494531
-0.0498231
-0.0496949
-0.0490748
-0.047964
-0.0463784
-0.0443288
-0.0418405
-0.0389331
-0.0356406
-0.0319907
-0.0280244
-0.0237763
-0.0192935
-0.0146154
-0.00979352
-0.00487071
9.91828e-05
9.91828e-05
-0.00487071
-0.00979352
-0.0146154
-0.0192935
-0.0237763
-0.0280244
-0.0319907
-0.0356406
-0.0389331
-0.0418405
-0.0443288
-0.0463784
-0.047964
-0.0490748
-0.0496949
-0.0498231
-0.0494531
-0.0485937
-0.0472485
-0.0454359
-0.0431688
-0.0404749
-0.037376
-0.0339079
-0.0301001
-0.0259954
-0.0216297
-0.0170514
-0.0123011
-0.00743094
-0.00248438
0.00248438
0.00743094
0.0123011
0.0170514
0.0216297
0.0259954
0.0301001
0.0339079
0.037376
0.0404749
0.0431688
0.0454359
0.0472485
0.0485937
0.0494531
0.0498231
0.0496949
0.0490748
0.047964
0.0463784
0.0443288
0.0418405
0.0389331
0.0356406
0.0319907
0.0280244
0.0237763
0.0192935
0.0146154
0.00979352
0.00487071
-9.91828e-05
0.000299613
-0.0145657
-0.0292802
-0.0437029
-0.0576856
-0.0710946
-0.0837917
-0.095656
-0.106565
-0.116414
-0.125103
-0.132548
-0.138671
-0.143417
-0.146734
-0.148593
-0.148971
-0.14787
-0.145295
-0.141278
-0.135853
-0.12908
-0.12102
-0.111759
-0.101384
-0.0900034
-0.0777252
-0.0646766
-0.0509823
-0.0367835
-0.0222164
-0.00743094
0.00743094
0.0222164
0.0367835
0.0509823
0.0646766
0.0777252
0.0900034
0.101384
0.111759
0.12102
0.12908
0.135853
0.141278
0.145295
0.14787
0.148971
0.148593
0.146734
0.143417
0.138671
0.132548
0.125103
0.116414
0.106565
0.095656
0.0837917
0.0710946
0.0576856
0.0437029
0.0292802
0.0145657
-0.000299613
0.000496185
-0.0241118
-0.0484767
-0.0723519
-0.0955053
-0.117702
-0.138727
-0.158367
-0.176431
-0.192735
-0.207122
-0.219446
-0.229587
-0.237441
-0.242936
-0.24601
-0.24664
-0.244814
-0.240555
-0.2339
-0.224922
-0.213704
-0.200364
-0.185028
-0.167854
-0.149009
-0.128685
-0.107078
-0.0844086
-0.0608976
-0.0367835
-0.0123011
0.0123011
0.0367835
0.0608976
0.0844086
0.107078
0.128685
0.149009
0.167854
0.185028
0.200364
0.213704
0.224922
0.2339
0.240555
0.244814
0.24664
0.24601
0.242936
0.237441
0.229587
0.219446
0.207122
0.192735
0.176431
0.158367
0.138727
0.117702
0.0955053
0.0723519
0.0484767
0.0241118
-0.000496185
0.000693046
-0.033418
-0.0671863
-0.100282
-0.132371
-0.16314
-0.192279
-0.219503
-0.244538
-0.26714
-0.287079
-0.304163
-0.318216
-0.329106
-0.336718
-0.340983
-0.341853
-0.339325
-0.333419
-0.324199
-0.311751
-0.296206
-0.277712
-0.256459
-0.232653
-0.206536
-0.178362
-0.148417
-0.116993
-0.0844086
-0.0509823
-0.0170514
0.0170514
0.0509823
0.0844086
0.116993
0.148417
0.178362
0.206536
0.232653
0.256459
0.277712
0.296206
0.311751
0.324199
0.333419
0.339325
0.341853
0.340983
0.336718
0.329106
0.318216
0.304163
0.287079
0.26714
0.244538
0.219503
0.192279
0.16314
0.132371
0.100282
0.0671863
0.033418
-0.000693046
0.000884307
-0.0423859
-0.0852269
-0.127209
-0.167919
-0.20695
-0.243918
-0.278452
-0.310214
-0.338884
-0.364181
-0.385851
-0.403683
-0.417494
-0.427154
-0.432562
-0.433669
-0.430459
-0.422969
-0.41127
-0.395483
-0.37576
-0.352302
-0.325338
-0.29514
-0.262006
-0.226268
-0.188277
-0.148417
-0.107078
-0.0646766
-0.0216297
0.0216297
0.0646766
0.107078
0.148417
0.188277
0.226268
0.262006
0.29514
0.325338
0.352302
0.37576
0.395483
0.41127
0.422969
0.430459
0.433669
0.432562
0.427154
0.417494
0.403683
0.385851
0.364181
0.338884
0.310214
0.278452
0.243918
0.20695
0.167919
0.127209
0.0852269
0.0423859
-0.000884307
0.00107417
-0.0509301
-0.102413
-0.152869
-0.201792
-0.248701
-0.293127
-0.334632
-0.3728
-0.407258
-0.437658
-0.463703
-0.48513
-0.501732
-0.513339
-0.51984
-0.521168
-0.517313
-0.50831
-0.494254
-0.475279
-0.451579
-0.423385
-0.390983
-0.35469
-0.314873
-0.271921
-0.226268
-0.178362
-0.128685
-0.0777252
-0.0259954
0.0259954
0.0777252
0.128685
0.178362
0.226268
0.271921
0.314873
0.35469
0.390983
0.423385
0.451579
0.475279
0.494254
0.50831
0.517313
0.521168
0.51984
0.513339
0.501732
0.48513
0.463703
0.437658
0.407258
0.3728
0.334632
0.293127
0.248701
0.201792
0.152869
0.102413
0.0509301
-0.00107417
0.0012568
-0.0589597
-0.118578
-0.177002
-0.233655
-0.287972
-0.339418
-0.387478
-0.431678
-0.471576
-0.506781
-0.536938
-0.561754
-0.580976
-0.594419
-0.601946
-0.603486
-0.59902
-0.588598
-0.572319
-0.55035
-0.522904
-0.49026
-0.452738
-0.410715
-0.364606
-0.314873
-0.262006
-0.206536
-0.149009
-0.0900034
-0.0301001
0.0301001
0.0900034
0.149009
0.206536
0.262006
0.314873
0.364606
0.410715
0.452738
0.49026
0.522904
0.55035
0.572319
0.588598
0.59902
0.603486
0.601946
0.594419
0.580976
0.561754
0.536938
0.506781
0.471576
0.431678
0.387478
0.339418
0.287972
0.233655
0.177002
0.118578
0.0589597
-0.0012568
0.00143649
-0.0663988
-0.133555
-0.199371
-0.263187
-0.324377
-0.382328
-0.436468
-0.486257
-0.531204
-0.57086
-0.604834
-0.632786
-0.654442
-0.669584
-0.678066
-0.679799
-0.674772
-0.66303
-0.644695
-0.619945
-0.589031
-0.552257
-0.509992
-0.462653
-0.410715
-0.35469
-0.29514
-0.232653
-0.167854
-0.101384
-0.0339079
0.0339079
0.101384
0.167854
0.232653
0.29514
0.35469
0.410715
0.462653
0.509992
0.552257
0.589031
0.619945
0.644695
0.66303
0.674772
0.679799
0.678066
0.669584
0.654442
0.632786
0.604834
0.57086
0.531204
0.486257
0.436468
0.382328
0.324377
0.263187
0.199371
0.133555
0.0663988
-0.00143649
0.00160751
-0.0731673
-0.147199
-0.219748
-0.290098
-0.357548
-0.421432
-0.481111
-0.535998
-0.585543
-0.62926
-0.666709
-0.697524
-0.721395
-0.73809
-0.747438
-0.749352
-0.743809
-0.730869
-0.710656
-0.683377
-0.649298
-0.608764
-0.562172
-0.509992
-0.452738
-0.390983
-0.325338
-0.256459
-0.185028
-0.111759
-0.037376
0.037376
0.111759
0.185028
0.256459
0.325338
0.390983
0.452738
0.509992
0.562172
0.608764
0.649298
0.683377
0.710656
0.730869
0.743809
0.749352
0.747438
0.73809
0.721395
0.697524
0.666709
0.62926
0.585543
0.535998
0.481111
0.421432
0.357548
0.290098
0.219748
0.147199
0.0731673
-0.00160751
0.00177425
-0.0792021
-0.159368
-0.237934
-0.314114
-0.387159
-0.456336
-0.520966
-0.580401
-0.634057
-0.681395
-0.721953
-0.755321
-0.781174
-0.799251
-0.809377
-0.811449
-0.80545
-0.791435
-0.769551
-0.740009
-0.703109
-0.659213
-0.608764
-0.552257
-0.49026
-0.423385
-0.352302
-0.277712
-0.200364
-0.12102
-0.0404749
0.0404749
0.12102
0.200364
0.277712
0.352302
0.423385
0.49026
0.552257
0.608764
0.659213
0.703109
0.740009
0.769551
0.791435
0.80545
0.811449
0.809377
0.799251
0.781174
0.755321
0.721953
0.681395
0.634057
0.580401
0.520966
0.456336
0.387159
0.314114
0.237934
0.159368
0.0792021
-0.00177425
0.00193112
-0.0844369
-0.169946
-0.253743
-0.335001
-0.412909
-0.486698
-0.555631
-0.619028
-0.676257
-0.726752
-0.77001
-0.805604
-0.833178
-0.852463
-0.863263
-0.865476
-0.859076
-0.844132
-0.820789
-0.789283
-0.749925
-0.703109
-0.649298
-0.589031
-0.522904
-0.451579
-0.37576
-0.296206
-0.213704
-0.12908
-0.0431688
0.0431688
0.12908
0.213704
0.296206
0.37576
0.451579
0.522904
0.589031
0.649298
0.703109
0.749925
0.789283
0.820789
0.844132
0.859076
0.865476
0.863263
0.852463
0.833178
0.805604
0.77001
0.726752
0.676257
0.619028
0.555631
0.486698
0.412909
0.335001
0.253743
0.169946
0.0844369
-0.00193112
0.00208262
-0.0888238
-0.178821
-0.267022
-0.352545
-0.434547
-0.512209
-0.584765
-0.651491
-0.711728
-0.764874
-0.810406
-0.847869
-0.876895
-0.897191
-0.908562
-0.910891
-0.904159
-0.88843
-0.863865
-0.830705
-0.789283
-0.740009
-0.683377
-0.619945
-0.55035
-0.475279
-0.395483
-0.311751
-0.224922
-0.135853
-0.0454359
0.0454359
0.135853
0.224922
0.311751
0.395483
0.475279
0.55035
0.619945
0.683377
0.740009
0.789283
0.830705
0.863865
0.88843
0.904159
0.910891
0.908562
0.897191
0.876895
0.847869
0.810406
0.764874
0.711728
0.651491
0.584765
0.512209
0.434547
0.352545
0.267022
0.178821
0.0888238
-0.00208262
0.00222332
-0.092313
-0.185909
-0.277632
-0.366575
-0.451852
-0.532621
-0.608074
-0.677469
-0.740112
-0.795385
-0.842736
-0.881699
-0.911884
-0.932996
-0.94482
-0.947246
-0.940245
-0.923892
-0.898346
-0.863865
-0.820789
-0.769551
-0.710656
-0.644695
-0.572319
-0.494254
-0.41127
-0.324199
-0.2339
-0.141278
-0.0472485
0.0472485
0.141278
0.2339
0.324199
0.41127
0.494254
0.572319
0.644695
0.710656
0.769551
0.820789
0.863865
0.898346
0.923892
0.940245
0.947246
0.94482
0.932996
0.911884
0.881699
0.842736
0.795385
0.740112
0.677469
0.608074
0.532621
0.451852
0.366575
0.277632
0.185909
0.092313
-0.00222332
0.00235788
-0.0948738
-0.191134
-0.285472
-0.376947
-0.464656
-0.547723
-0.625329
-0.696699
-0.76113
-0.817977
-0.86668
-0.906753
-0.937802
-0.959514
-0.971681
-0.974175
-0.96698
-0.950161
-0.923892
-0.88843
-0.844132
-0.791435
-0.730869
-0.66303
-0.588598
-0.50831
-0.422969
-0.333419
-0.240555
-0.145295
-0.0485937
0.0485937
0.145295
0.240555
0.333419
0.422969
0.50831
0.588598
0.66303
0.730869
0.791435
0.844132
0.88843
0.923892
0.950161
0.96698
0.974175
0.971681
0.959514
0.937802
0.906753
0.86668
0.817977
0.76113
0.696699
0.625329
0.547723
0.464656
0.376947
0.285472
0.191134
0.0948738
-0.00235788
0.00248101
-0.0964747
-0.194447
-0.290458
-0.38356
-0.472825
-0.55737
-0.636353
-0.708995
-0.774568
-0.832428
-0.881996
-0.922785
-0.954385
-0.976488
-0.98887
-0.991414
-0.984092
-0.96698
-0.940245
-0.904159
-0.859076
-0.80545
-0.743809
-0.674772
-0.59902
-0.517313
-0.430459
-0.339325
-0.244814
-0.14787
-0.0494531
0.0494531
0.14787
0.244814
0.339325
0.430459
0.517313
0.59902
0.674772
0.743809
0.80545
0.859076
0.904159
0.940245
0.96698
0.984092
0.991414
0.98887
0.976488
0.954385
0.922785
0.881996
0.832428
0.774568
0.708995
0.636353
0.55737
0.472825
0.38356
0.290458
0.194447
0.0964747
-0.00248101
0.00259754
-0.0971038
-0.195809
-0.292544
-0.386344
-0.476282
-0.561461
-0.641041
-0.714226
-0.780297
-0.838591
-0.888535
-0.92963
-0.961472
-0.983741
-0.996222
-0.998786
-0.991414
-0.974175
-0.947246
-0.910891
-0.865476
-0.811449
-0.749352
-0.679799
-0.603486
-0.521168
-0.433669
-0.341853
-0.24664
-0.148971
-0.0498231
0.0498231
0.148971
0.24664
0.341853
0.433669
0.521168
0.603486
0.679799
0.749352
0.811449
0.865476
0.910891
0.947246
0.974175
0.991414
0.998786
0.996222
0.983741
0.961472
0.92963
0.888535
0.838591
0.780297
0.714226
0.641041
0.561461
0.476282
0.386344
0.292544
0.195809
0.0971038
-0.00259754
0.00270236
-0.0967487
-0.195212
-0.291704
-0.385274
-0.474987
-0.559958
-0.639339
-0.712347
-0.778252
-0.836406
-0.886226
-0.927224