# vtk DataFile Version 3.0
Scalar Field Data
ASCII
DATASET STRUCTURED_POINTS
DIMENSIONS 128 64 1
ORIGIN 0 -1 0
SPACING 0.015748 0.031746 1
POINT_DATA 8192
SCALARS scalars double
LOOKUP_TABLE default
0.693147
0.685118
0.676775
0.668117
0.659139
0.649839
0.640213
0.630258
0.619971
0.609347
0.598383
0.587076
0.575422
0.563416
0.551054
0.538334
0.525249
0.511797
0.497972
0.48377
0.469187
0.454218
0.438858
0.423102
0.406946
0.390384
0.373411
0.356021
0.33821
0.319972
0.301301
0.282192
0.262639
0.242636
0.222177
0.201255
0.179865
0.158
0.135654
0.11282
0.0894912
0.065661
0.0413223
0.0164681
-0.00890881
-0.0348158
-0.0612604
-0.0882502
-0.115793
-0.143896
-0.172569
-0.201818
-0.231652
-0.262081
-0.293111
-0.324752
-0.357014
-0.389904
-0.423432
-0.457608
-0.492441
-0.52794
-0.564116
-0.600978
-0.638537
-0.676802
-0.715785
-0.755496
-0.795946
-0.837146
-0.879107
-0.921841
-0.965359
-1.00967
-1.05479
-1.10074
-1.14751
-1.19513
-1.24361
-1.29296
-1.34319
-1.39432
-1.44636
-1.49932
-1.55323
-1.60809
-1.66391
-1.72072
-1.77853
-1.83735
-1.8972
-1.9581
-2.02005
-2.08308
-2.14721
-2.21244
-2.2788
-2.34631
-2.41498
-2.48483
-2.55588
-2.62815
-2.70165
-2.77641
-2.85244
-2.92977
-3.00841
-3.08838
-3.16971
-3.25242
-3.33653
-3.42206
-3.50902
-3.59746
-3.68738
-3.77881
-3.87177
-3.9663
-4.0624
-4.16011
-4.25946
-4.36046
-4.46314
-4.56754
-4.67367
-4.78157
-4.89125
-5.00276
0.630663
0.622633
0.614291
0.605632
0.596655
0.587354
0.577729
0.567774
0.557486
0.546862
0.535899
0.524592
0.512937
0.500931
0.48857
0.475849
0.462764
0.449312
0.435487
0.421286
0.406702
0.391733
0.376373
0.360617
0.344461
0.327899
0.310926
0.293536
0.275725
0.257487
0.238816
0.219707
0.200154
0.180151
0.159692
0.13877
0.11738
0.095515
0.0731688
0.0503347
0.027006
0.00317574
-0.0211629
-0.0460171
-0.0713941
-0.0973011
-0.123746
-0.150736
-0.178278
-0.206382
-0.235054
-0.264303
-0.294138
-0.324566
-0.355596
-0.387238
-0.419499
-0.452389
-0.485918
-0.520094
-0.554926
-0.590426
-0.626601
-0.663463
-0.701022
-0.739288
-0.778271
-0.817982
-0.858432
-0.899632
-0.941593
-0.984326
-1.02784
-1.07216
-1.11728
-1.16322
-1.21
-1.25762
-1.30609
-1.35544
-1.40567
-1.4568
-1.50884
-1.56181
-1.61572
-1.67057
-1.7264
-1.78321
-1.84102
-1.89984
-1.95969
-2.02058
-2.08254
-2.14557
-2.20969
-2.27493
-2.34129
-2.4088
-2.47747
-2.54732
-2.61837
-2.69063
-2.76413
-2.83889
-2.91492
-2.99225
-3.07089
-3.15087
-3.2322
-3.31491
-3.39901
-3.48454
-3.57151
-3.65994
-3.74986
-3.84129
-3.93426
-4.02878
-4.12489
-4.2226
-4.32194
-4.42294
-4.52563
-4.63002
-4.73616
-4.84405
-4.95374
-5.06525
0.570194
0.562165
0.553822
0.545164
0.536186
0.526886
0.51726
0.507305
0.497017
0.486393
0.47543
0.464123
0.452468
0.440462
0.428101
0.41538
0.402295
0.388843
0.375018
0.360816
0.346233
0.331264
0.315904
0.300148
0.283992
0.267429
0.250456
0.233067
0.215256
0.197018
0.178347
0.159238
0.139685
0.119681
0.0992221
0.0783005
0.0569104
0.0350455
0.0126993
-0.0101348
-0.0334636
-0.0572938
-0.0816325
-0.106487
-0.131864
-0.157771
-0.184215
-0.211205
-0.238748
-0.266851
-0.295524
-0.324773
-0.354608
-0.385036
-0.416066
-0.447708
-0.479969
-0.512859
-0.546388
-0.580563
-0.615396
-0.650895
-0.687071
-0.723933
-0.761492
-0.799758
-0.838741
-0.878452
-0.918902
-0.960101
-1.00206
-1.0448
-1.08831
-1.13263
-1.17775
-1.22369
-1.27047
-1.31809
-1.36656
-1.41591
-1.46614
-1.51727
-1.56931
-1.62228
-1.67619
-1.73104
-1.78687
-1.84368
-1.90149
-1.96031
-2.02016
-2.08105
-2.14301
-2.20604
-2.27016
-2.3354
-2.40176
-2.46927
-2.53794
-2.60779
-2.67884
-2.7511
-2.8246
-2.89936
-2.97539
-3.05272
-3.13136
-3.21134
-3.29267
-3.37538
-3.45948
-3.54501
-3.63198
-3.72041
-3.81033
-3.90176
-3.99473
-4.08925
-4.18535
-4.28307
-4.38241
-4.48341
-4.5861
-4.69049
-4.79663
-4.90452
-5.01421
-5.12571
0.511741
0.503712
0.495369
0.48671
0.477733
0.468432
0.458807
0.448852
0.438564
0.42794
0.416976
0.405669
0.394015
0.382009
0.369647
0.356926
0.343842
0.330389
0.316565
0.302363
0.28778
0.272811
0.25745
0.241695
0.225538
0.208976
0.192003
0.174613
0.156802
0.138564
0.119893
0.100784
0.081231
0.0612277
0.0407683
0.0198467
-0.0015434
-0.0234083
-0.0457545
-0.0685887
-0.0919175
-0.115748
-0.140086
-0.164941
-0.190318
-0.216225
-0.242669
-0.269659
-0.297202
-0.325305
-0.353978
-0.383227
-0.413062
-0.44349
-0.47452
-0.506162
-0.538423
-0.571313
-0.604842
-0.639018
-0.67385
-0.70935
-0.745525
-0.782387
-0.819946
-0.858212
-0.897195
-0.936906
-0.977356
-1.01856
-1.06052
-1.10325
-1.14677
-1.19108
-1.2362
-1.28215
-1.32892
-1.37654
-1.42502
-1.47437
-1.5246
-1.57573
-1.62777
-1.68073
-1.73464
-1.7895
-1.84532
-1.90213
-1.95994
-2.01876
-2.07861
-2.13951
-2.20146
-2.26449
-2.32862
-2.39385
-2.46021
-2.52772
-2.59639
-2.66624
-2.73729
-2.80956
-2.88306
-2.95782
-3.03385
-3.11117
-3.18982
-3.26979
-3.35112
-3.43383
-3.51794
-3.60346
-3.69043
-3.77887
-3.86879
-3.96022
-4.05318
-4.1477
-4.24381
-4.34152
-4.44086
-4.54187
-4.64455
-4.74895
-4.85508
-4.96297
-5.07266
-5.18417
0.455304
0.447274
0.438932
0.430273
0.421295
0.411995
0.402369
0.392414
0.382126
0.371502
0.360539
0.349232
0.337577
0.325571
0.31321
0.300489
0.287404
0.273952
0.260127
0.245925
0.231342
0.216373
0.201013
0.185257
0.1691
0.152538
0.135565
0.118175
0.100364
0.082126
0.0634553
0.0443461
0.0247929
0.00478956
-0.0156698
-0.0365915
-0.0579816
-0.0798465
-0.102193
-0.125027
-0.148356
-0.172186
-0.196525
-0.221379
-0.246756
-0.272663
-0.299108
-0.326097
-0.35364
-0.381744
-0.410416
-0.439665
-0.4695
-0.499928
-0.530959
-0.5626
-0.594862
-0.627752
-0.66128
-0.695456
-0.730289
-0.765788
-0.801964
-0.838826
-0.876385
-0.91465
-0.953633
-0.993344
-1.03379
-1.07499
-1.11696
-1.15969
-1.20321
-1.24752
-1.29264
-1.33858
-1.38536
-1.43298
-1.48146
-1.5308
-1.58104
-1.63217
-1.68421
-1.73717
-1.79108
-1.84594
-1.90176
-1.95857
-2.01638
-2.0752
-2.13505
-2.19594
-2.2579
-2.32093
-2.38506
-2.45029
-2.51665
-2.58416
-2.65283
-2.72268
-2.79373
-2.866
-2.9395
-3.01425
-3.09029
-3.16761
-3.24625
-3.32623
-3.40756
-3.49027
-3.57438
-3.6599
-3.74687
-3.8353
-3.92522
-4.01665
-4.10962
-4.20414
-4.30025
-4.39796
-4.4973
-4.5983
-4.70099
-4.80538
-4.91152
-5.01941
-5.1291
-5.24061
0.400882
0.392852
0.38451
0.375851
0.366873
0.357573
0.347947
0.337992
0.327704
0.31708
0.306117
0.29481
0.283155
0.271149
0.258787
0.246067
0.232982
0.219529
0.205705
0.191503
0.17692
0.16195
0.14659
0.130834
0.114678
0.0981156
0.0811423
0.0637528
0.0459418
0.0277036
0.00903285
-0.0100763
-0.0296296
-0.0496329
-0.0700923
-0.091014
-0.112404
-0.134269
-0.156615
-0.179449
-0.202778
-0.226609
-0.250947
-0.275802
-0.301179
-0.327086
-0.35353
-0.38052
-0.408063
-0.436166
-0.464839
-0.494088
-0.523923
-0.554351
-0.585381
-0.617023
-0.649284
-0.682175
-0.715703
-0.749879
-0.784712
-0.820211
-0.856387
-0.893249
-0.930808
-0.969073
-1.00806
-1.04777
-1.08822
-1.12942
-1.17138
-1.21411
-1.25763
-1.30194
-1.34707
-1.39301
-1.43978
-1.4874
-1.53588
-1.58523
-1.63546
-1.68659
-1.73863
-1.7916
-1.8455
-1.90036
-1.95619
-2.013
-2.0708
-2.12962
-2.18947
-2.25037
-2.31232
-2.37535
-2.43948
-2.50471
-2.57108
-2.63858
-2.70725
-2.7771
-2.84815
-2.92042
-2.99392
-3.06868
-3.14471
-3.22204
-3.30068
-3.38065
-3.46198
-3.54469
-3.6288
-3.71433
-3.80129
-3.88973
-3.97965
-4.07108
-4.16404
-4.25856
-4.35467
-4.45238
-4.55172
-4.65273
-4.75541
-4.85981
-4.96594
-5.07383
-5.18352
-5.29503
0.348476
0.340446
0.332104
0.323445
0.314467
0.305167
0.295541
0.285586
0.275298
0.264674
0.25371
0.242403
0.230748
0.218742
0.206381
0.19366
0.180575
0.167123
0.153298
0.139096
0.124513
0.109544
0.0941837
0.0784278
0.0622712
0.0457089
0.0287356
0.0113461
-0.00646495
-0.0247031
-0.0433739
-0.062483
-0.0820363
-0.10204
-0.122499
-0.143421
-0.164811
-0.186676
-0.209022
-0.231856
-0.255185
-0.279015
-0.303354
-0.328208
-0.353585
-0.379493
-0.405937
-0.432927
-0.46047
-0.488573
-0.517246
-0.546495
-0.57633
-0.606758
-0.637788
-0.66943
-0.701691
-0.734582
-0.76811
-0.802286
-0.837119
-0.872618
-0.908794
-0.945656
-0.983215
-1.02148
-1.06046
-1.10017
-1.14062
-1.18182
-1.22379
-1.26652
-1.31004
-1.35435
-1.39947
-1.44541
-1.49219
-1.53981
-1.58829
-1.63763
-1.68787
-1.739
-1.79104
-1.844
-1.89791
-1.95277
-2.00859
-2.0654
-2.12321
-2.18203
-2.24188
-2.30277
-2.36473
-2.42776
-2.49189
-2.55712
-2.62348
-2.69099
-2.75966
-2.82951
-2.90056
-2.97283
-3.04633
-3.12108
-3.19712
-3.27444
-3.35308
-3.43306
-3.51439
-3.5971
-3.68121
-3.76673
-3.8537
-3.94213
-4.03205
-4.12348
-4.21645
-4.31097
-4.40708
-4.50479
-4.60413
-4.70513
-4.80782
-4.91221
-5.01834
-5.12624
-5.23593
-5.34743
0.298085
0.290056
0.281713
0.273054
0.264076
0.254776
0.24515
0.235195
0.224907
0.214283
0.20332
0.192012
0.180358
0.168352
0.15599
0.143269
0.130185
0.116732
0.102907
0.0887053
0.0741221
0.0591529
0.0437927
0.0280368
0.0118802
-0.00468212
-0.0216554
-0.0390449
-0.056856
-0.0750942
-0.093765
-0.112874
-0.132427
-0.152431
-0.17289
-0.193812
-0.215202
-0.237067
-0.259413
-0.282248
-0.305576
-0.329407
-0.353745
-0.3786
-0.403977
-0.429884
-0.456329
-0.483318
-0.510861
-0.538965
-0.567637
-0.596887
-0.626721
-0.657149
-0.68818
-0.719821
-0.752083
-0.784973
-0.818502
-0.852677
-0.88751
-0.92301
-0.959185
-0.996047
-1.03361
-1.07187
-1.11085
-1.15057
-1.19102
-1.23222
-1.27418
-1.31691
-1.36043
-1.40474
-1.44986
-1.49581
-1.54258
-1.5902
-1.63868
-1.68803
-1.73826
-1.78939
-1.84143
-1.89439
-1.9483
-2.00316
-2.05899
-2.11579
-2.1736
-2.23242
-2.29227
-2.35317
-2.41512
-2.47815
-2.54228
-2.60751
-2.67387
-2.74138
-2.81005
-2.8799
-2.95095
-3.02322
-3.09672
-3.17148
-3.24751
-3.32483
-3.40348
-3.48345
-3.56478
-3.64749
-3.7316
-3.81712
-3.90409
-3.99252
-4.08244
-4.17387
-4.26684
-4.36136
-4.45747
-4.55518
-4.65452
-4.75552
-4.85821
-4.9626
-5.06874
-5.17663
-5.28632
-5.39782
0.249711
0.241681
0.233338
0.224679
0.215701
0.206401
0.196775
0.18682
0.176532
0.165908
0.154945
0.143637
0.131982
0.119976
0.107615
0.094894
0.0818094
0.0683568
0.0545319
0.0403301
0.0257469
0.0107776
-0.00458262
-0.0203385
-0.0364951
-0.0530575
-0.0700308
-0.0874203
-0.105231
-0.12347
-0.14214
-0.16125
-0.180803
-0.200806
-0.221266
-0.242187
-0.263578
-0.285443
-0.307789
-0.330623
-0.353952
-0.377782
-0.402121
-0.426975
-0.452352
-0.47826
-0.504704
-0.531694
-0.559237
-0.58734
-0.616013
-0.645262
-0.675097
-0.705525
-0.736556
-0.768197
-0.800459
-0.833349
-0.866877
-0.901053
-0.935886
-0.971385
-1.00756
-1.04442
-1.08198
-1.12025
-1.15923
-1.19894
-1.23939
-1.28059
-1.32255
-1.36529
-1.4088
-1.45312
-1.49824
-1.54418
-1.59096
-1.63858
-1.68705
-1.7364
-1.78663
-1.83776
-1.8898
-1.94277
-1.99668
-2.05153
-2.10736
-2.16417
-2.22198
-2.2808
-2.34065
-2.40154
-2.4635
-2.52653
-2.59065
-2.65589
-2.72225
-2.78976
-2.85843
-2.92828
-2.99933
-3.07159
-3.14509
-3.21985
-3.29588
-3.37321
-3.45185
-3.53183
-3.61316
-3.69587
-3.77997
-3.8655
-3.95247
-4.0409
-4.13082
-4.22225
-4.31521
-4.40974
-4.50584
-4.60355
-4.7029
-4.8039
-4.90658
-5.01098
-5.11711
-5.22501
-5.33469
-5.4462
0.203351
0.195321
0.186979
0.17832
0.169342
0.160042
0.150416
0.140461
0.130173
0.119549
0.108585
0.0972777
0.085623
0.0736169
0.0612554
0.0485344
0.0354498
0.0219972
0.00817224
-0.00602957
-0.0206128
-0.0355821
-0.0509423
-0.0666982
-0.0828548
-0.0994172
-0.116391
-0.13378
-0.151591
-0.169829
-0.1885
-0.207609
-0.227163
-0.247166
-0.267626
-0.288547
-0.309938
-0.331803
-0.354149
-0.376983
-0.400312
-0.424142
-0.448481
-0.473335
-0.498712
-0.52462
-0.551064
-0.578054
-0.605597
-0.633701
-0.662373
-0.691622
-0.721457
-0.751885
-0.782916
-0.814557
-0.846819
-0.879709
-0.913237
-0.947413
-0.982246
-1.01775
-1.05392
-1.09078
-1.12834
-1.16661
-1.20559
-1.2453
-1.28575
-1.32695
-1.36891
-1.41165
-1.45516
-1.49948
-1.5446
-1.59054
-1.63732
-1.68494
-1.73341
-1.78276
-1.83299
-1.88412
-1.93616
-1.98913
-2.04304
-2.09789
-2.15372
-2.21053
-2.26834
-2.32716
-2.38701
-2.4479
-2.50986
-2.57289
-2.63701
-2.70225
-2.76861
-2.83612
-2.90479
-2.97464
-3.04569
-3.11795
-3.19145
-3.26621
-3.34224
-3.41957
-3.49821
-3.57819
-3.65952
-3.74223
-3.82633
-3.91186
-3.99883
-4.08726
-4.17718
-4.26861
-4.36157
-4.4561
-4.5522
-4.64991
-4.74926
-4.85026
-4.95294
-5.05734
-5.16347
-5.27136
-5.38105
-5.49256
0.159008
0.150978
0.142635
0.133976
0.124998
0.115698
0.106072
0.0961167
0.0858289
0.075205
0.0642412
0.0529339
0.0412791
0.029273
0.0169115
0.00419051
-0.00889414
-0.0223468
-0.0361717
-0.0503736
-0.0649568
-0.0799261
-0.0952863
-0.111042
-0.127199
-0.143761
-0.160735
-0.178124
-0.195935
-0.214174
-0.232844
-0.251954
-0.271507
-0.29151
-0.31197
-0.332892
-0.354282
-0.376147
-0.398493
-0.421327
-0.444656
-0.468487
-0.492825
-0.51768
-0.543057
-0.568964
-0.595409
-0.622398
-0.649941
-0.678045
-0.706717
-0.735967
-0.765801
-0.79623
-0.82726
-0.858902
-0.891163
-0.924053
-0.957582
-0.991758
-1.02659
-1.06209
-1.09827
-1.13513
-1.17269
-1.21095
-1.24994
-1.28965
-1.3301
-1.3713
-1.41326
-1.45599
-1.49951
-1.54382
-1.58894
-1.63489
-1.68166
-1.72928
-1.77776
-1.82711
-1.87734
-1.92847
-1.98051
-2.03348
-2.08738
-2.14224
-2.19807
-2.25488
-2.31268
-2.3715
-2.43135
-2.49225
-2.5542
-2.61723
-2.68136
-2.74659
-2.81295
-2.88046
-2.94913
-3.01898
-3.09003
-3.1623
-3.2358
-3.31056
-3.38659
-3.46391
-3.54255
-3.62253
-3.70386
-3.78657
-3.87068
-3.9562
-4.04317
-4.1316
-4.22152
-4.31295
-4.40592
-4.50044
-4.59655
-4.69426
-4.7936
-4.8946
-4.99729
-5.10168
-5.20781
-5.31571
-5.4254
-5.5369
0.11668
0.10865
0.100307
0.0916482
0.0826702
0.0733698
0.0637437
0.0537886
0.0435008
0.0328768
0.021913
0.0106056
-0.00104916
-0.0130553
-0.0254168
-0.0381378
-0.0512224
-0.0646751
-0.0785001
-0.0927019
-0.107285
-0.122255
-0.137615
-0.153371
-0.169527
-0.18609
-0.203063
-0.220453
-0.238264
-0.256502
-0.275173
-0.294282
-0.313835
-0.333839
-0.354298
-0.37522
-0.39661
-0.418475
-0.440822
-0.463656
-0.486985
-0.510815
-0.535154
-0.560008
-0.585385
-0.611293
-0.637737
-0.664727
-0.69227
-0.720374
-0.749046
-0.778295
-0.80813
-0.838558
-0.869589
-0.90123
-0.933492
-0.966382
-0.999911
-1.03409
-1.06892
-1.10442
-1.14059
-1.17746
-1.21502
-1.25328
-1.29226
-1.33198
-1.37243
-1.41363
-1.45559
-1.49832
-1.54184
-1.58615
-1.63127
-1.67722
-1.72399
-1.77161
-1.82009
-1.86943
-1.91967
-1.9708
-2.02284
-2.0758
-2.12971
-2.18457
-2.24039
-2.2972
-2.35501
-2.41383
-2.47368
-2.53458
-2.59653
-2.65956
-2.72369
-2.78892
-2.85528
-2.92279
-2.99146
-3.06131
-3.13236
-3.20463
-3.27813
-3.35288
-3.42892
-3.50624
-3.58488
-3.66486
-3.74619
-3.8289
-3.91301
-3.99853
-4.0855
-4.17393
-4.26385
-4.35528
-4.44825
-4.54277
-4.63887
-4.73659
-4.83593
-4.93693
-5.03962
-5.14401
-5.25014
-5.35804
-5.46772
-5.57923
0.0763671
0.0683373
0.0599945
0.0513357
0.0423577
0.0330573
0.0234312
0.013476
0.00318821
-0.00743576
-0.0183996
-0.029707
-0.0413618
-0.0533679
-0.0657294
-0.0784504
-0.0915351
-0.104988
-0.118813
-0.133015
-0.147598
-0.162567
-0.177927
-0.193683
-0.20984
-0.226403
-0.243376
-0.260765
-0.278577
-0.296815
-0.315486
-0.334595
-0.354148
-0.374152
-0.394611
-0.415533
-0.436923
-0.458788
-0.481135
-0.503969
-0.527298
-0.551128
-0.575467
-0.600321
-0.625698
-0.651606
-0.67805
-0.70504
-0.732583
-0.760687
-0.789359
-0.818608
-0.848443
-0.878871
-0.909902
-0.941544
-0.973805
-1.0067
-1.04022
-1.0744
-1.10923
-1.14473
-1.18091
-1.21777
-1.25533
-1.29359
-1.33258
-1.37229
-1.41274
-1.45394
-1.4959
-1.53863
-1.58215
-1.62647
-1.67159
-1.71753
-1.7643
-1.81192
-1.8604
-1.90975
-1.95998
-2.01111
-2.06315
-2.11612
-2.17002
-2.22488
-2.28071
-2.33752
-2.39532
-2.45415
-2.51399
-2.57489
-2.63684
-2.69987
-2.764
-2.82923
-2.8956
-2.9631
-3.03177
-3.10162
-3.17267
-3.24494
-3.31844
-3.3932
-3.46923
-3.54656
-3.6252
-3.70517
-3.7865
-3.86921
-3.95332
-4.03884
-4.12581
-4.21424
-4.30416
-4.3956
-4.48856
-4.58308
-4.67919
-4.7769
-4.87624
-4.97724
-5.07993
-5.18432
-5.29045
-5.39835
-5.50804
-5.61954
0.0380703
0.0300405
0.0216977
0.0130389
0.00406085
-0.00523955
-0.0148657
-0.0248209
-0.0351087
-0.0457327
-0.0566965
-0.0680039
-0.0796587
-0.0916649
-0.104026
-0.116747
-0.129832
-0.143285
-0.15711
-0.171312
-0.185895
-0.200864
-0.216225
-0.231981
-0.248137
-0.2647
-0.281673
-0.299063
-0.316874
-0.335112
-0.353783
-0.372892
-0.392446
-0.412449
-0.432909
-0.45383
-0.475221
-0.497086
-0.519432
-0.542266
-0.565595
-0.589425
-0.613764
-0.638619
-0.663996
-0.689903
-0.716348
-0.743338
-0.77088
-0.798984
-0.827656
-0.856906
-0.88674
-0.917169
-0.948199
-0.979841
-1.0121
-1.04499
-1.07852
-1.1127
-1.14753
-1.18303
-1.21921
-1.25607
-1.29363
-1.33189
-1.37087
-1.41059
-1.45104
-1.49224
-1.5342
-1.57693
-1.62045
-1.66476
-1.70988
-1.75583
-1.8026
-1.85022
-1.8987
-1.94805
-1.99828
-2.04941
-2.10145
-2.15441
-2.20832
-2.26318
-2.31901
-2.37581
-2.43362
-2.49244
-2.55229
-2.61319
-2.67514
-2.73817
-2.8023
-2.86753
-2.93389
-3.0014
-3.07007
-3.13992
-3.21097
-3.28324
-3.35674
-3.43149
-3.50753
-3.58485
-3.66349
-3.74347
-3.8248
-3.90751
-3.99162
-4.07714
-4.16411
-4.25254
-4.34246
-4.43389
-4.52686
-4.62138
-4.71748
-4.81519
-4.91454
-5.01554
-5.11822
-5.22262
-5.32875
-5.43665
-5.54633
-5.65784
0.00178916
-0.00624069
-0.0145835
-0.0232424
-0.0322204
-0.0415208
-0.0511469
-0.0611022
-0.07139
-0.082014
-0.0929778
-0.104285
-0.11594
-0.127946
-0.140308
-0.153029
-0.166114
-0.179566
-0.193391
-0.207593
-0.222176
-0.237146
-0.252506
-0.268262
-0.284419
-0.300981
-0.317955
-0.335344
-0.353155
-0.371394
-0.390065
-0.409174
-0.428727
-0.448731
-0.46919
-0.490112
-0.511502
-0.533367
-0.555714
-0.578548
-0.601877
-0.625707
-0.650046
-0.6749
-0.700277
-0.726185
-0.752629
-0.779619
-0.807162
-0.835266
-0.863938
-0.893188
-0.923022
-0.953451
-0.984481
-1.01612
-1.04838
-1.08127
-1.1148
-1.14898
-1.18381
-1.21931
-1.25549
-1.29235
-1.32991
-1.36817
-1.40716
-1.44687
-1.48732
-1.52852
-1.57048
-1.61321
-1.65673
-1.70104
-1.74617
-1.79211
-1.83888
-1.8865
-1.93498
-1.98433
-2.03456
-2.08569
-2.13773
-2.1907
-2.2446
-2.29946
-2.35529
-2.4121
-2.4699
-2.52872
-2.58857
-2.64947
-2.71142
-2.77445
-2.83858
-2.90381
-2.97018
-3.03768
-3.10635
-3.1762
-3.24725
-3.31952
-3.39302
-3.46778
-3.54381
-3.62113
-3.69978
-3.77975
-3.86108
-3.94379
-4.0279
-4.11342
-4.20039
-4.28882
-4.37874
-4.47017
-4.56314
-4.65766
-4.75376
-4.85148
-4.95082
-5.05182
-5.15451
-5.2589
-5.36503
-5.47293
-5.58261
-5.69412
-0.0324764
-0.0405063
-0.0488491
-0.057508
-0.066486
-0.0757864
-0.0854126
-0.0953678
-0.105656
-0.11628
-0.127244
-0.138551
-0.150206
-0.162212
-0.174574
-0.187295
-0.200379
-0.213832
-0.227657
-0.241859
-0.256442
-0.271412
-0.286772
-0.302528
-0.318685
-0.335247
-0.35222
-0.36961
-0.387421
-0.40566
-0.42433
-0.44344
-0.462993
-0.482997
-0.503456
-0.524378
-0.545768
-0.567633
-0.58998
-0.612814
-0.636143
-0.659973
-0.684312
-0.709166
-0.734543
-0.760451
-0.786895
-0.813885
-0.841428
-0.869532
-0.898204
-0.927454
-0.957288
-0.987717
-1.01875
-1.05039
-1.08265
-1.11554
-1.14907
-1.18325
-1.21808
-1.25358
-1.28975
-1.32662
-1.36417
-1.40244
-1.44142
-1.48113
-1.52158
-1.56278
-1.60475
-1.64748
-1.691
-1.73531
-1.78043
-1.82637
-1.87315
-1.92077
-1.96925
-2.01859
-2.06883
-2.11996
-2.172
-2.22496
-2.27887
-2.33373
-2.38955
-2.44636
-2.50417
-2.56299
-2.62284
-2.68373
-2.74569
-2.80872
-2.87284
-2.93808
-3.00444
-3.07195
-3.14062
-3.21047
-3.28152
-3.35378
-3.42729
-3.50204
-3.57807
-3.6554
-3.73404
-3.81402
-3.89535
-3.97806
-4.06216
-4.14769
-4.23466
-4.32309
-4.41301
-4.50444
-4.5974
-4.69193
-4.78803
-4.88574
-4.98509
-5.08609
-5.18877
-5.29317
-5.3993
-5.50719
-5.61688
-5.72839
-0.0647263
-0.0727562
-0.0810991
-0.0897579
-0.098736
-0.108036
-0.117663
-0.127618
-0.137906
-0.14853
-0.159494
-0.170801
-0.182456
-0.194462
-0.206824
-0.219545
-0.232629
-0.246082
-0.259907
-0.274109
-0.288692
-0.303662
-0.319022
-0.334778
-0.350935
-0.367497
-0.384471
-0.40186
-0.419672
-0.43791
-0.456581
-0.47569
-0.495243
-0.515247
-0.535706
-0.556628
-0.578018
-0.599883
-0.62223
-0.645064
-0.668393
-0.692223
-0.716562
-0.741417
-0.766794
-0.792701
-0.819146
-0.846136
-0.873679
-0.901782
-0.930455
-0.959704
-0.989539
-1.01997
-1.051
-1.08264
-1.1149
-1.14779
-1.18132
-1.2155
-1.25033
-1.28583
-1.322
-1.35887
-1.39642
-1.43469
-1.47367
-1.51338
-1.55383
-1.59503
-1.637
-1.67973
-1.72325
-1.76756
-1.81268
-1.85862
-1.9054
-1.95302
-2.0015
-2.05084
-2.10108
-2.15221
-2.20425
-2.25721
-2.31112
-2.36598
-2.4218
-2.47861
-2.53642
-2.59524
-2.65509
-2.71598
-2.77794
-2.84097
-2.9051
-2.97033
-3.03669
-3.1042
-3.17287
-3.24272
-3.31377
-3.38603
-3.45954
-3.53429
-3.61032
-3.68765
-3.76629
-3.84627
-3.9276
-4.01031
-4.09441
-4.17994
-4.26691
-4.35534
-4.44526
-4.53669
-4.62965
-4.72418
-4.82028
-4.91799
-5.01734
-5.11834
-5.22102
-5.32542
-5.43155
-5.53944
-5.64913
-5.76064
-0.0949607
-0.102991
-0.111333
-0.119992
-0.12897
-0.138271
-0.147897
-0.157852
-0.16814
-0.178764
-0.189728
-0.201035
-0.21269
-0.224697
-0.237058
-0.249779
-0.262864
-0.276317
-0.290142
-0.304344
-0.318927
-0.333896
-0.349257
-0.365013
-0.381169
-0.397732
-0.414705
-0.432095
-0.449906
-0.468144
-0.486815
-0.505925
-0.525478
-0.545482
-0.565941
-0.586863
-0.608253
-0.630118
-0.652465
-0.675299
-0.698628
-0.722458
-0.746797
-0.771651
-0.797029
-0.822936
-0.849381
-0.876371
-0.903913
-0.932017
-0.960689
-0.989939
-1.01977
-1.0502
-1.08123
-1.11287
-1.14514
-1.17803
-1.21155
-1.24573
-1.28056
-1.31606
-1.35224
-1.3891
-1.42666
-1.46493
-1.50391
-1.54362
-1.58407
-1.62527
-1.66723
-1.70996
-1.75348
-1.7978
-1.84292
-1.88886
-1.93563
-1.98325
-2.03173
-2.08108
-2.13131
-2.18244
-2.23448
-2.28745
-2.34135
-2.39621
-2.45204
-2.50885
-2.56666
-2.62548
-2.68533
-2.74622
-2.80817
-2.87121
-2.93533
-3.00056
-3.06693
-3.13443
-3.2031
-3.27295
-3.344
-3.41627
-3.48977
-3.56453
-3.64056
-3.71789
-3.79653
-3.8765
-3.95783
-4.04054
-4.12465
-4.21017
-4.29714
-4.38557
-4.47549
-4.56692
-4.65989
-4.75441
-4.85052
-4.94823
-5.04757
-5.14857
-5.25126
-5.35565
-5.46178
-5.56968
-5.67936
-5.79087
-0.123179
-0.131209
-0.139552
-0.148211
-0.157189
-0.16649
-0.176116
-0.186071
-0.196359
-0.206983
-0.217947
-0.229254
-0.240909
-0.252915
-0.265277
-0.277998
-0.291083
-0.304535
-0.318361
-0.332562
-0.347146
-0.362115
-0.377476
-0.393232
-0.409388
-0.425951
-0.442924
-0.460314
-0.478125
-0.496363
-0.515034
-0.534144
-0.553697
-0.573701
-0.59416
-0.615082
-0.636472
-0.658337
-0.680684
-0.703518
-0.726847
-0.750677
-0.775016
-0.799871
-0.825248
-0.851155
-0.8776
-0.90459
-0.932132
-0.960236
-0.988909
-1.01816
-1.04799
-1.07842
-1.10945
-1.14109
-1.17335
-1.20625
-1.23977
-1.27395
-1.30878
-1.34428
-1.38046
-1.41732
-1.45488
-1.49314
-1.53213
-1.57184
-1.61229
-1.65349
-1.69545
-1.73818
-1.7817
-1.82602
-1.87114
-1.91708
-1.96385
-2.01147
-2.05995
-2.1093
-2.15953
-2.21066
-2.2627
-2.31567
-2.36957
-2.42443
-2.48026
-2.53707
-2.59487
-2.6537
-2.71354
-2.77444
-2.83639
-2.89942
-2.96355
-3.02878
-3.09515
-3.16265
-3.23132
-3.30117
-3.37222
-3.44449
-3.51799
-3.59275
-3.66878
-3.7461
-3.82475
-3.90472
-3.98605
-4.06876
-4.15287
-4.23839
-4.32536
-4.41379
-4.50371
-4.59514
-4.68811
-4.78263
-4.87873
-4.97645
-5.07579
-5.17679
-5.27948
-5.38387
-5.49
-5.5979
-5.70758
-5.81909
-0.149382
-0.157412
-0.165755
-0.174414
-0.183392
-0.192693
-0.202319
-0.212274
-0.222562
-0.233186
-0.24415
-0.255457
-0.267112
-0.279119
-0.29148
-0.304201
-0.317286
-0.330739
-0.344564
-0.358766
-0.373349
-0.388319
-0.403679
-0.419435
-0.435592
-0.452154
-0.469128
-0.486517
-0.504328
-0.522567
-0.541238
-0.560347
-0.5799
-0.599904
-0.620363
-0.641285
-0.662676
-0.684541
-0.706887
-0.729721
-0.75305
-0.776881
-0.80122
-0.826074
-0.851451
-0.877358
-0.903803
-0.930793
-0.958336
-0.98644
-1.01511
-1.04436
-1.0742
-1.10462
-1.13566
-1.1673
-1.19956
-1.23245
-1.26598
-1.30015
-1.33499
-1.37049
-1.40666
-1.44352
-1.48108
-1.51935
-1.55833
-1.59804
-1.63849
-1.67969
-1.72165
-1.76439
-1.8079
-1.85222
-1.89734
-1.94328
-1.99006
-2.03768
-2.08615
-2.1355
-2.18573
-2.23686
-2.2889
-2.34187
-2.39578
-2.45063
-2.50646
-2.56327
-2.62108
-2.6799
-2.73975
-2.80064
-2.8626
-2.92563
-2.98975
-3.05499
-3.12135
-3.18886
-3.25753
-3.32738
-3.39843
-3.47069
-3.54419
-3.61895
-3.69498
-3.77231
-3.85095
-3.93092
-4.01226
-4.09496
-4.17907
-4.2646
-4.35156
-4.44
-4.52992
-4.62135
-4.71431
-4.80883
-4.90494
-5.00265
-5.10199
-5.20299
-5.30568
-5.41007
-5.5162
-5.6241
-5.73379
-5.84529
-0.17357
-0.1816
-0.189943
-0.198602
-0.20758
-0.21688
-0.226506
-0.236462
-0.24675
-0.257374
-0.268338
-0.279645
-0.2913
-0.303306
-0.315668
-0.328389
-0.341474
-0.354926
-0.368751
-0.382953
-0.397537
-0.412506
-0.427866
-0.443623
-0.459779
-0.476342
-0.493315
-0.510705
-0.528516
-0.546754
-0.565425
-0.584535
-0.604088
-0.624092
-0.644551
-0.665473
-0.686863
-0.708728
-0.731075
-0.753909
-0.777238
-0.801068
-0.825407
-0.850262
-0.875639
-0.901546
-0.927991
-0.954981
-0.982524
-1.01063
-1.0393
-1.06855
-1.09838
-1.12881
-1.15984
-1.19148
-1.22375
-1.25664
-1.29016
-1.32434
-1.35917
-1.39467
-1.43085
-1.46771
-1.50527
-1.54354
-1.58252
-1.62223
-1.66268
-1.70388
-1.74584
-1.78857
-1.83209
-1.87641
-1.92153
-1.96747
-2.01424
-2.06186
-2.11034
-2.15969
-2.20992
-2.26105
-2.31309
-2.36606
-2.41996
-2.47482
-2.53065
-2.58746
-2.64527
-2.70409
-2.76394
-2.82483
-2.88678
-2.94982
-3.01394
-3.07918
-3.14554
-3.21304
-3.28171
-3.35156
-3.42261
-3.49488
-3.56838
-3.64314
-3.71917
-3.7965
-3.87514
-3.95511
-4.03644
-4.11915
-4.20326
-4.28878
-4.37575
-4.46418
-4.5541
-4.64553
-4.7385
-4.83302
-4.92912
-5.02684
-5.12618
-5.22718
-5.32987
-5.43426
-5.54039
-5.64829
-5.75797
-5.86948
-0.195742
-0.203772
-0.212115
-0.220773
-0.229752
-0.239052
-0.248678
-0.258634
-0.268921
-0.279546
-0.290509
-0.301817
-0.313472
-0.325478
-0.33784
-0.350561
-0.363646
-0.377098
-0.390923
-0.405125
-0.419709
-0.434678
-0.450038
-0.465795
-0.481951
-0.498514
-0.515487
-0.532877
-0.550688
-0.568926
-0.587597
-0.606707
-0.62626
-0.646264
-0.666723
-0.687645
-0.709035
-0.7309
-0.753247
-0.776081
-0.79941
-0.823241
-0.847579
-0.872434
-0.897811
-0.923718
-0.950163
-0.977153
-1.0047
-1.0328
-1.06147
-1.09072
-1.12056
-1.15098
-1.18202
-1.21366
-1.24592
-1.27881
-1.31234
-1.34651
-1.38135
-1.41685
-1.45302
-1.48988
-1.52744
-1.56571
-1.60469
-1.6444
-1.68485
-1.72605
-1.76801
-1.81075
-1.85426
-1.89858
-1.9437
-1.98964
-2.03642
-2.08404
-2.13251
-2.18186
-2.23209
-2.28322
-2.33526
-2.38823
-2.44214
-2.49699
-2.55282
-2.60963
-2.66744
-2.72626
-2.78611
-2.847
-2.90896
-2.97199
-3.03611
-3.10135
-3.16771
-3.23522
-3.30389
-3.37374
-3.44479
-3.51705
-3.59055
-3.66531
-3.74134
-3.81867
-3.89731
-3.97728
-4.05862
-4.14132
-4.22543
-4.31096
-4.39792
-4.48636
-4.57628
-4.66771
-4.76067
-4.85519
-4.9513
-5.04901
-5.14835
-5.24935
-5.35204
-5.45643
-5.56256
-5.67046
-5.78014
-5.89165
-0.215898
-0.223928
-0.232271
-0.24093
-0.249908
-0.259208
-0.268834
-0.27879
-0.289078
-0.299702
-0.310666
-0.321973
-0.333628
-0.345634
-0.357996
-0.370717
-0.383802
-0.397255
-0.41108
-0.425282
-0.439865
-0.454834
-0.470195
-0.485951
-0.502108
-0.51867
-0.535644
-0.553033
-0.570845
-0.589083
-0.607754
-0.626863
-0.646417
-0.66642
-0.68688
-0.707801
-0.729192
-0.751057
-0.773403
-0.796238
-0.819567
-0.843397
-0.867736
-0.89259
-0.917967
-0.943875
-0.97032
-0.997309
-1.02485
-1.05296
-1.08163
-1.11088
-1.14071
-1.17114
-1.20217
-1.23381
-1.26607
-1.29897
-1.33249
-1.36667
-1.4015
-1.437
-1.47318
-1.51004
-1.5476
-1.58586
-1.62485
-1.66456
-1.70501
-1.74621
-1.78817
-1.8309
-1.87442
-1.91874
-1.96386
-2.0098
-2.05657
-2.10419
-2.15267
-2.20202
-2.25225
-2.30338
-2.35542
-2.40839
-2.46229
-2.51715
-2.57298
-2.62979
-2.68759
-2.74642
-2.80626
-2.86716
-2.92911
-2.99214
-3.05627
-3.1215
-3.18787
-3.25537
-3.32404
-3.39389
-3.46494
-3.53721
-3.61071
-3.68547
-3.7615
-3.83882
-3.91746
-3.99744
-4.07877
-4.16148
-4.24559
-4.33111
-4.41808
-4.50651
-4.59643
-4.68786
-4.78083
-4.87535
-4.97145
-5.06916
-5.16851
-5.26951
-5.37219
-5.47659
-5.58272
-5.69061
-5.8003
-5.91181
-0.234039
-0.242068
-0.250411
-0.25907
-0.268048
-0.277349
-0.286975
-0.29693
-0.307218
-0.317842
-0.328806
-0.340114
-0.351769
-0.363775
-0.376137
-0.388858
-0.401943
-0.415395
-0.42922
-0.443422
-0.458006
-0.472975
-0.488336
-0.504092
-0.520248
-0.536811
-0.553784
-0.571174
-0.588985
-0.607224
-0.625895
-0.645004
-0.664557
-0.684561
-0.70502
-0.725942
-0.747333
-0.769198
-0.791544
-0.814378
-0.837707
-0.861538
-0.885877
-0.910731
-0.936108
-0.962016
-0.98846
-1.01545
-1.04299
-1.0711
-1.09977
-1.12902
-1.15885
-1.18928
-1.22031
-1.25195
-1.28422
-1.31711
-1.35063
-1.38481
-1.41964
-1.45514
-1.49132
-1.52818
-1.56574
-1.60401
-1.64299
-1.6827
-1.72315
-1.76435
-1.80631
-1.84904
-1.89256
-1.93688
-1.982
-2.02794
-2.07471
-2.12233
-2.17081
-2.22016
-2.27039
-2.32152
-2.37356
-2.42653
-2.48043
-2.53529
-2.59112
-2.64793
-2.70574
-2.76456
-2.82441
-2.8853
-2.94725
-3.01029
-3.07441
-3.13964
-3.20601
-3.27351
-3.34218
-3.41203
-3.48308
-3.55535
-3.62885
-3.70361
-3.77964
-3.85697
-3.93561
-4.01558
-4.09691
-4.17962
-4.26373
-4.34925
-4.43622
-4.52465
-4.61457
-4.706
-4.79897
-4.89349
-4.98959
-5.08731
-5.18665
-5.28765
-5.39033
-5.49473
-5.60086
-5.70876
-5.81844
-5.92995
-0.250163
-0.258193
-0.266536
-0.275195
-0.284173
-0.293474
-0.3031
-0.313055
-0.323343
-0.333967
-0.344931
-0.356239
-0.367894
-0.3799
-0.392262
-0.404983
-0.418068
-0.43152
-0.445345
-0.459547
-0.474131
-0.4891
-0.504461
-0.520217
-0.536373
-0.552936
-0.569909
-0.587299
-0.60511
-0.623349
-0.64202
-0.661129
-0.680682
-0.700686
-0.721146
-0.742067
-0.763458
-0.785323
-0.807669
-0.830504
-0.853833
-0.877663
-0.902002
-0.926856
-0.952233
-0.978141
-1.00459
-1.03158
-1.05912
-1.08722
-1.11589
-1.14514
-1.17498
-1.20541
-1.23644
-1.26808
-1.30034
-1.33323
-1.36676
-1.40094
-1.43577
-1.47127
-1.50744
-1.54431
-1.58186
-1.62013
-1.65911
-1.69882
-1.73927
-1.78047
-1.82244
-1.86517
-1.90869
-1.953
-1.99812
-2.04407
-2.09084
-2.13846
-2.18694
-2.23628
-2.28652
-2.33765
-2.38969
-2.44265
-2.49656
-2.55142
-2.60724
-2.66405
-2.72186
-2.78068
-2.84053
-2.90142
-2.96338
-3.02641
-3.09053
-3.15577
-3.22213
-3.28964
-3.35831
-3.42816
-3.49921
-3.57147
-3.64498
-3.71973
-3.79576
-3.87309
-3.95173
-4.03171
-4.11304
-4.19575
-4.27985
-4.36538
-4.45235
-4.54078
-4.6307
-4.72213
-4.81509
-4.90961
-5.00572
-5.10343
-5.20277
-5.30377
-5.40646
-5.51085
-5.61699
-5.72488
-5.83457
-5.94607
-0.264273
-0.272303
-0.280646
-0.289305
-0.298283
-0.307583