# vtk DataFile Version 3.0
Scalar Field Data
ASCII
DATASET STRUCTURED_POINTS
DIMENSIONS 256 128 1
ORIGIN -5 -3 0
SPACING 0.0392157 0.0472441 1
POINT_DATA 32768
SCALARS scalars double
LOOKUP_TABLE default
1.74288e-06
1.51055e-06
1.27589e-06
1.03927e-06
8.01058e-07
5.61611e-07
3.213e-07
8.04943e-08
-1.60435e-07
-4.01117e-07
-6.41182e-07
-8.80262e-07
-1.11799e-06
-1.35399e-06
-1.58792e-06
-1.8194e-06
-2.04809e-06
-2.27362e-06
-2.49566e-06
-2.71387e-06
-2.9279e-06
-3.13742e-06
-3.34213e-06
-3.54169e-06
-3.73581e-06
-3.92418e-06
-4.10652e-06
-4.28255e-06
-4.45199e-06
-4.61458e-06
-4.77008e-06
-4.91824e-06
-5.05884e-06
-5.19167e-06
-5.31651e-06
-5.43317e-06
-5.54148e-06
-5.64127e-06
-5.73238e-06
-5.81468e-06
-5.88804e-06
-5.95235e-06
-6.0075e-06
-6.05341e-06
-6.09002e-06
-6.11726e-06
-6.13509e-06
-6.1435e-06
-6.14245e-06
-6.13196e-06
-6.11204e-06
-6.08272e-06
-6.04405e-06
-5.99609e-06
-5.9389e-06
-5.87259e-06
-5.79724e-06
-5.71298e-06
-5.61993e-06
-5.51825e-06
-5.40807e-06
-5.28959e-06
-5.16296e-06
-5.0284e-06
-4.88611e-06
-4.7363e-06
-4.57921e-06
-4.41508e-06
-4.24416e-06
-4.06672e-06
-3.88302e-06
-3.69335e-06
-3.498e-06
-3.29727e-06
-3.09148e-06
-2.88092e-06
-2.66594e-06
-2.44686e-06
-2.22402e-06
-1.99776e-06
-1.76842e-06
-1.53637e-06
-1.30195e-06
-1.06553e-06
-8.27475e-07
-5.88146e-07
-3.47912e-07
-1.07143e-07
1.3379e-07
3.74518e-07
6.1467e-07
8.53877e-07
1.09177e-06
1.32799e-06
1.56216e-06
1.79393e-06
2.02294e-06
2.24884e-06
2.47129e-06
2.68993e-06
2.90444e-06
3.11448e-06
3.31973e-06
3.51988e-06
3.71462e-06
3.90364e-06
4.08666e-06
4.2634e-06
4.43358e-06
4.59694e-06
4.75324e-06
4.90222e-06
5.04367e-06
5.17736e-06
5.3031e-06
5.42067e-06
5.52992e-06
5.63065e-06
5.72274e-06
5.80602e-06
5.88037e-06
5.94568e-06
6.00185e-06
6.04879e-06
6.08643e-06
6.11471e-06
6.13359e-06
6.14303e-06
6.14303e-06
6.13359e-06
6.11471e-06
6.08643e-06
6.04879e-06
6.00185e-06
5.94568e-06
5.88037e-06
5.80602e-06
5.72274e-06
5.63065e-06
5.52992e-06
5.42067e-06
5.3031e-06
5.17736e-06
5.04367e-06
4.90222e-06
4.75324e-06
4.59694e-06
4.43358e-06
4.2634e-06
4.08666e-06
3.90364e-06
3.71462e-06
3.51988e-06
3.31973e-06
3.11448e-06
2.90444e-06
2.68993e-06
2.47129e-06
2.24884e-06
2.02294e-06
1.79393e-06
1.56216e-06
1.32799e-06
1.09177e-06
8.53877e-07
6.1467e-07
3.74518e-07
1.3379e-07
-1.07143e-07
-3.47912e-07
-5.88146e-07
-8.27475e-07
-1.06553e-06
-1.30195e-06
-1.53637e-06
-1.76842e-06
-1.99776e-06
-2.22402e-06
-2.44686e-06
-2.66594e-06
-2.88092e-06
-3.09148e-06
-3.29727e-06
-3.498e-06
-3.69335e-06
-3.88302e-06
-4.06672e-06
-4.24416e-06
-4.41508e-06
-4.57921e-06
-4.7363e-06
-4.88611e-06
-5.0284e-06
-5.16296e-06
-5.28959e-06
-5.40807e-06
-5.51825e-06
-5.61993e-06
-5.71298e-06
-5.79724e-06
-5.87259e-06
-5.9389e-06
-5.99609e-06
-6.04405e-06
-6.08272e-06
-6.11204e-06
-6.13196e-06
-6.14245e-06
-6.1435e-06
-6.13509e-06
-6.11726e-06
-6.09002e-06
-6.05341e-06
-6.0075e-06
-5.95235e-06
-5.88804e-06
-5.81468e-06
-5.73238e-06
-5.64127e-06
-5.54148e-06
-5.43317e-06
-5.31651e-06
-5.19167e-06
-5.05884e-06
-4.91824e-06
-4.77008e-06
-4.61458e-06
-4.45199e-06
-4.28255e-06
-4.10652e-06
-3.92418e-06
-3.73581e-06
-3.54169e-06
-3.34213e-06
-3.13742e-06
-2.9279e-06
-2.71387e-06
-2.49566e-06
-2.27362e-06
-2.04809e-06
-1.8194e-06
-1.58792e-06
-1.35399e-06
-1.11799e-06
-8.80262e-07
-6.41182e-07
-4.01117e-07
-1.60435e-07
8.04943e-08
3.213e-07
5.61611e-07
8.01058e-07
1.03927e-06
1.27589e-06
1.51055e-06
1.74288e-06
2.4206e-06
2.27274e-06
2.1207e-06
1.96505e-06
1.80627e-06
1.64485e-06
1.48129e-06
1.31606e-06
1.14969e-06
9.82678e-07
8.15563e-07
6.48876e-07
4.83161e-07
3.18962e-07
1.56831e-07
-2.68352e-09
-1.5903e-07
-3.11661e-07
-4.60033e-07
-6.03607e-07
-7.41852e-07
-8.74244e-07
-1.00027e-06
-1.11943e-06
-1.23123e-06
-1.3352e-06
-1.43086e-06
-1.51778e-06
-1.59553e-06
-1.66367e-06
-1.72183e-06
-1.76962e-06
-1.80668e-06
-1.83266e-06
-1.84726e-06
-1.85017e-06
-1.84111e-06
-1.81982e-06
-1.78607e-06
-1.73965e-06
-1.68037e-06
-1.60805e-06
-1.52256e-06
-1.42377e-06
-1.31159e-06
-1.18595e-06
-1.04678e-06
-8.94066e-07
-7.27804e-07
-5.48013e-07
-3.54735e-07
-1.4804e-07
7.19845e-08
3.05224e-07
5.51542e-07
8.10779e-07
1.08276e-06
1.36727e-06
1.66409e-06
1.97297e-06
2.29365e-06
2.62583e-06
2.96921e-06
3.32346e-06
3.68824e-06
4.06316e-06
4.44786e-06
4.84193e-06
5.24494e-06
5.65647e-06
6.07606e-06
6.50324e-06
6.93755e-06
7.37847e-06
7.82551e-06
8.27814e-06
8.73584e-06
9.19807e-06
9.66427e-06
1.01339e-05
1.06064e-05
1.10811e-05
1.15575e-05
1.20351e-05
1.25131e-05
1.29911e-05
1.34684e-05
1.39444e-05
1.44186e-05
1.48903e-05
1.53589e-05
1.58239e-05
1.62845e-05
1.67404e-05
1.71907e-05
1.76351e-05
1.80729e-05
1.85035e-05
1.89263e-05
1.93409e-05
1.97467e-05
2.01431e-05
2.05296e-05
2.09058e-05
2.12711e-05
2.1625e-05
2.19671e-05
2.22969e-05
2.26141e-05
2.2918e-05
2.32085e-05
2.3485e-05
2.37472e-05
2.39947e-05
2.42273e-05
2.44446e-05
2.46464e-05
2.48322e-05
2.5002e-05
2.51555e-05
2.52924e-05
2.54126e-05
2.5516e-05
2.56023e-05
2.56715e-05
2.57235e-05
2.57582e-05
2.57756e-05
2.57756e-05
2.57582e-05
2.57235e-05
2.56715e-05
2.56023e-05
2.5516e-05
2.54126e-05
2.52924e-05
2.51555e-05
2.5002e-05
2.48322e-05
2.46464e-05
2.44446e-05
2.42273e-05
2.39947e-05
2.37472e-05
2.3485e-05
2.32085e-05
2.2918e-05
2.26141e-05
2.22969e-05
2.19671e-05
2.1625e-05
2.12711e-05
2.09058e-05
2.05296e-05
2.01431e-05
1.97467e-05
1.93409e-05
1.89263e-05
1.85035e-05
1.80729e-05
1.76351e-05
1.71907e-05
1.67404e-05
1.62845e-05
1.58239e-05
1.53589e-05
1.48903e-05
1.44186e-05
1.39444e-05
1.34684e-05
1.29911e-05
1.25131e-05
1.20351e-05
1.15575e-05
1.10811e-05
1.06064e-05
1.01339e-05
9.66427e-06
9.19807e-06
8.73584e-06
8.27814e-06
7.82551e-06
7.37847e-06
6.93755e-06
6.50324e-06
6.07606e-06
5.65647e-06
5.24494e-06
4.84193e-06
4.44786e-06
4.06316e-06
3.68824e-06
3.32346e-06
2.96921e-06
2.62583e-06
2.29365e-06
1.97297e-06
1.66409e-06
1.36727e-06
1.08276e-06
8.10779e-07
5.51542e-07
3.05224e-07
7.19845e-08
-1.4804e-07
-3.54735e-07
-5.48013e-07
-7.27804e-07
-8.94066e-07
-1.04678e-06
-1.18595e-06
-1.31159e-06
-1.42377e-06
-1.52256e-06
-1.60805e-06
-1.68037e-06
-1.73965e-06
-1.78607e-06
-1.81982e-06
-1.84111e-06
-1.85017e-06
-1.84726e-06
-1.83266e-06
-1.80668e-06
-1.76962e-06
-1.72183e-06
-1.66367e-06
-1.59553e-06
-1.51778e-06
-1.43086e-06
-1.3352e-06
-1.23123e-06
-1.11943e-06
-1.00027e-06
-8.74244e-07
-7.41852e-07
-6.03607e-07
-4.60033e-07
-3.11661e-07
-1.5903e-07
-2.68352e-09
1.56831e-07
3.18962e-07
4.83161e-07
6.48876e-07
8.15563e-07
9.82678e-07
1.14969e-06
1.31606e-06
1.48129e-06
1.64485e-06
1.80627e-06
1.96505e-06
2.1207e-06
2.27274e-06
2.4206e-06
3.34688e-06
3.25005e-06
3.14714e-06
3.03877e-06
2.92556e-06
2.80812e-06
2.68711e-06
2.56319e-06
2.43707e-06
2.30945e-06
2.18107e-06
2.0527e-06
1.92509e-06
1.79904e-06
1.67532e-06
1.55473e-06
1.43808e-06
1.32615e-06
1.21973e-06
1.11962e-06
1.02658e-06
9.4138e-07
8.64773e-07
7.97493e-07
7.40259e-07
6.93769e-07
6.58701e-07
6.3571e-07
6.25429e-07
6.28464e-07
6.45396e-07
6.76777e-07
7.23133e-07
7.84958e-07
8.62718e-07
9.56849e-07
1.06775e-06
1.1958e-06
1.34133e-06
1.50464e-06
1.68602e-06
1.88569e-06
2.10386e-06
2.3407e-06
2.59635e-06
2.8709e-06
3.16442e-06
3.47694e-06
3.80846e-06
4.15893e-06
4.52829e-06
4.91643e-06
5.3232e-06
5.74843e-06
6.1919e-06
6.65339e-06
7.13261e-06
7.62925e-06
8.14297e-06
8.67341e-06
9.22016e-06
9.78278e-06
1.03608e-05
1.09538e-05
1.15612e-05
1.21824e-05
1.2817e-05
1.34642e-05
1.41235e-05
1.47943e-05
1.54758e-05
1.61674e-05
1.68683e-05
1.75779e-05
1.82953e-05
1.90199e-05
1.97508e-05
2.04872e-05
2.12284e-05
2.19735e-05
2.27216e-05
2.34719e-05
2.42236e-05
2.49758e-05
2.57276e-05
2.64782e-05
2.72267e-05
2.79721e-05
2.87137e-05
2.94505e-05
3.01816e-05
3.09063e-05
3.16235e-05
3.23324e-05
3.30323e-05
3.37221e-05
3.44011e-05
3.50685e-05
3.57233e-05
3.63649e-05
3.69923e-05
3.76049e-05
3.82019e-05
3.87825e-05
3.9346e-05
3.98916e-05
4.04188e-05
4.09268e-05
4.1415e-05
4.18827e-05
4.23295e-05
4.27547e-05
4.31577e-05
4.35381e-05
4.38954e-05
4.42291e-05
4.45388e-05
4.48242e-05
4.50847e-05
4.53202e-05
4.55302e-05
4.57146e-05
4.58731e-05
4.60055e-05
4.61117e-05
4.61914e-05
4.62446e-05
4.62712e-05
4.62712e-05
4.62446e-05
4.61914e-05
4.61117e-05
4.60055e-05
4.58731e-05
4.57146e-05
4.55302e-05
4.53202e-05
4.50847e-05
4.48242e-05
4.45388e-05
4.42291e-05
4.38954e-05
4.35381e-05
4.31577e-05
4.27547e-05
4.23295e-05
4.18827e-05
4.1415e-05
4.09268e-05
4.04188e-05
3.98916e-05
3.9346e-05
3.87825e-05
3.82019e-05
3.76049e-05
3.69923e-05
3.63649e-05
3.57233e-05
3.50685e-05
3.44011e-05
3.37221e-05
3.30323e-05
3.23324e-05
3.16235e-05
3.09063e-05
3.01816e-05
2.94505e-05
2.87137e-05
2.79721e-05
2.72267e-05
2.64782e-05
2.57276e-05
2.49758e-05
2.42236e-05
2.34719e-05
2.27216e-05
2.19735e-05
2.12284e-05
2.04872e-05
1.97508e-05
1.90199e-05
1.82953e-05
1.75779e-05
1.68683e-05
1.61674e-05
1.54758e-05
1.47943e-05
1.41235e-05
1.34642e-05
1.2817e-05
1.21824e-05
1.15612e-05
1.09538e-05
1.03608e-05
9.78278e-06
9.22016e-06
8.67341e-06
8.14297e-06
7.62925e-06
7.13261e-06
6.65339e-06
6.1919e-06
5.74843e-06
5.3232e-06
4.91643e-06
4.52829e-06
4.15893e-06
3.80846e-06
3.47694e-06
3.16442e-06
2.8709e-06
2.59635e-06
2.3407e-06
2.10386e-06
1.88569e-06
1.68602e-06
1.50464e-06
1.34133e-06
1.1958e-06
1.06775e-06
9.56849e-07
8.62718e-07
7.84958e-07
7.23133e-07
6.76777e-07
6.45396e-07
6.28464e-07
6.25429e-07
6.3571e-07
6.58701e-07
6.93769e-07
7.40259e-07
7.97493e-07
8.64773e-07
9.4138e-07
1.02658e-06
1.11962e-06
1.21973e-06
1.32615e-06
1.43808e-06
1.55473e-06
1.67532e-06
1.79904e-06
1.92509e-06
2.0527e-06
2.18107e-06
2.30945e-06
2.43707e-06
2.56319e-06
2.68711e-06
2.80812e-06
2.92556e-06
3.03877e-06
3.14714e-06
3.25005e-06
3.34688e-06
4.607e-06
4.51674e-06
4.41807e-06
4.31174e-06
4.19851e-06
4.07922e-06
3.95475e-06
3.82599e-06
3.69391e-06
3.55949e-06
3.42376e-06
3.28776e-06
3.15257e-06
3.01926e-06
2.88895e-06
2.76274e-06
2.64174e-06
2.52707e-06
2.41983e-06
2.32112e-06
2.23203e-06
2.15363e-06
2.08696e-06
2.03307e-06
1.99295e-06
1.96759e-06
1.95792e-06
1.96488e-06
1.98934e-06
2.03215e-06
2.09413e-06
2.17604e-06
2.27862e-06
2.40257e-06
2.54853e-06
2.7171e-06
2.90886e-06
3.12431e-06
3.36393e-06
3.62814e-06
3.91732e-06
4.2318e-06
4.57186e-06
4.93773e-06
5.32961e-06
5.74762e-06
6.19185e-06
6.66235e-06
7.15911e-06
7.68205e-06
8.23109e-06
8.80606e-06
9.40677e-06
1.0033e-05
1.06843e-05
1.13605e-05
1.20612e-05
1.27859e-05
1.35341e-05
1.43054e-05
1.50991e-05
1.59147e-05
1.67514e-05
1.76087e-05
1.84857e-05
1.93818e-05
2.0296e-05
2.12277e-05
2.21758e-05
2.31395e-05
2.41179e-05
2.511e-05
2.61148e-05
2.71313e-05
2.81583e-05
2.91949e-05
3.024e-05
3.12924e-05
3.2351e-05
3.34146e-05
3.44821e-05
3.55523e-05
3.6624e-05
3.76959e-05
3.87669e-05
3.98357e-05
4.09012e-05
4.1962e-05
4.30169e-05
4.40647e-05
4.51042e-05
4.61342e-05
4.71533e-05
4.81605e-05
4.91544e-05
5.01339e-05
5.10979e-05
5.20451e-05
5.29744e-05
5.38847e-05
5.47748e-05
5.56436e-05
5.64902e-05
5.73134e-05
5.81122e-05
5.88857e-05
5.96329e-05
6.03528e-05
6.10445e-05
6.17072e-05
6.23402e-05
6.29424e-05
6.35133e-05
6.40521e-05
6.45581e-05
6.50307e-05
6.54692e-05
6.58732e-05
6.62421e-05
6.65755e-05
6.68729e-05
6.71339e-05
6.73583e-05
6.75457e-05
6.76959e-05
6.78088e-05
6.78841e-05
6.79218e-05
6.79218e-05
6.78841e-05
6.78088e-05
6.76959e-05
6.75457e-05
6.73583e-05
6.71339e-05
6.68729e-05
6.65755e-05
6.62421e-05
6.58732e-05
6.54692e-05
6.50307e-05
6.45581e-05
6.40521e-05
6.35133e-05
6.29424e-05
6.23402e-05
6.17072e-05
6.10445e-05
6.03528e-05
5.96329e-05
5.88857e-05
5.81122e-05
5.73134e-05
5.64902e-05
5.56436e-05
5.47748e-05
5.38847e-05
5.29744e-05
5.20451e-05
5.10979e-05
5.01339e-05
4.91544e-05
4.81605e-05
4.71533e-05
4.61342e-05
4.51042e-05
4.40647e-05
4.30169e-05
4.1962e-05
4.09012e-05
3.98357e-05
3.87669e-05
3.76959e-05
3.6624e-05
3.55523e-05
3.44821e-05
3.34146e-05
3.2351e-05
3.12924e-05
3.024e-05
2.91949e-05
2.81583e-05
2.71313e-05
2.61148e-05
2.511e-05
2.41179e-05
2.31395e-05
2.21758e-05
2.12277e-05
2.0296e-05
1.93818e-05
1.84857e-05
1.76087e-05
1.67514e-05
1.59147e-05
1.50991e-05
1.43054e-05
1.35341e-05
1.27859e-05
1.20612e-05
1.13605e-05
1.06843e-05
1.0033e-05
9.40677e-06
8.80606e-06
8.23109e-06
7.68205e-06
7.15911e-06
6.66235e-06
6.19185e-06
5.74762e-06
5.32961e-06
4.93773e-06
4.57186e-06
4.2318e-06
3.91732e-06
3.62814e-06
3.36393e-06
3.12431e-06
2.90886e-06
2.7171e-06
2.54853e-06
2.40257e-06
2.27862e-06
2.17604e-06
2.09413e-06
2.03215e-06
1.98934e-06
1.96488e-06
1.95792e-06
1.96759e-06
1.99295e-06
2.03307e-06
2.08696e-06
2.15363e-06
2.23203e-06
2.32112e-06
2.41983e-06
2.52707e-06
2.64174e-06
2.76274e-06
2.88895e-06
3.01926e-06
3.15257e-06
3.28776e-06
3.42376e-06
3.55949e-06
3.69391e-06
3.82599e-06
3.95475e-06
4.07922e-06
4.19851e-06
4.31174e-06
4.41807e-06
4.51674e-06
4.607e-06
6.31332e-06
6.17039e-06
6.01606e-06
5.85129e-06
5.67714e-06
5.49471e-06
5.30519e-06
5.10985e-06
4.90998e-06
4.70695e-06
4.50216e-06
4.29705e-06
4.09309e-06
3.89177e-06
3.69461e-06
3.50312e-06
3.31882e-06
3.14325e-06
2.9779e-06
2.82429e-06
2.68391e-06
2.5582e-06
2.44862e-06
2.35656e-06
2.2834e-06
2.23048e-06
2.19909e-06
2.19048e-06
2.20586e-06
2.24638e-06
2.31317e-06
2.40725e-06
2.52965e-06
2.6813e-06
2.86309e-06
3.07584e-06
3.32033e-06
3.59725e-06
3.90726e-06
4.25092e-06
4.62876e-06
5.04122e-06
5.48869e-06
5.97149e-06
6.48988e-06
7.04403e-06
7.63408e-06
8.26007e-06
8.92199e-06
9.61977e-06
1.03533e-05
1.11223e-05
1.19265e-05
1.27656e-05
1.36392e-05
1.45468e-05
1.54879e-05
1.64619e-05
1.74682e-05
1.8506e-05
1.95746e-05
2.06731e-05
2.18007e-05
2.29564e-05
2.41392e-05
2.53481e-05
2.65821e-05
2.78398e-05
2.91203e-05
3.04222e-05
3.17442e-05
3.30851e-05
3.44435e-05
3.58179e-05
3.7207e-05
3.86093e-05
4.00233e-05
4.14475e-05
4.28804e-05
4.43202e-05
4.57656e-05
4.72147e-05
4.86661e-05
5.01181e-05
5.1569e-05
5.30171e-05
5.44608e-05
5.58983e-05
5.73281e-05
5.87484e-05
6.01575e-05
6.15538e-05
6.29356e-05
6.43012e-05
6.5649e-05
6.69774e-05
6.82847e-05
6.95694e-05
7.08299e-05
7.20647e-05
7.32722e-05
7.44509e-05
7.55995e-05
7.67164e-05
7.78003e-05
7.88498e-05
7.98637e-05
8.08406e-05
8.17794e-05
8.26788e-05
8.35378e-05
8.43552e-05
8.513e-05
8.58613e-05
8.65481e-05
8.71895e-05
8.77848e-05
8.83332e-05
8.8834e-05
8.92865e-05
8.96902e-05
9.00446e-05
9.03492e-05
9.06036e-05
9.08075e-05
9.09607e-05
9.10629e-05
9.11141e-05
9.11141e-05
9.10629e-05
9.09607e-05
9.08075e-05
9.06036e-05
9.03492e-05
9.00446e-05
8.96902e-05
8.92865e-05
8.8834e-05
8.83332e-05
8.77848e-05
8.71895e-05
8.65481e-05
8.58613e-05
8.513e-05
8.43552e-05
8.35378e-05
8.26788e-05
8.17794e-05
8.08406e-05
7.98637e-05
7.88498e-05
7.78003e-05
7.67164e-05
7.55995e-05
7.44509e-05
7.32722e-05
7.20647e-05
7.08299e-05
6.95694e-05
6.82847e-05
6.69774e-05
6.5649e-05
6.43012e-05
6.29356e-05
6.15538e-05
6.01575e-05
5.87484e-05
5.73281e-05
5.58983e-05
5.44608e-05
5.30171e-05
5.1569e-05
5.01181e-05
4.86661e-05
4.72147e-05
4.57656e-05
4.43202e-05
4.28804e-05
4.14475e-05
4.00233e-05
3.86093e-05
3.7207e-05
3.58179e-05
3.44435e-05
3.30851e-05
3.17442e-05
3.04222e-05
2.91203e-05
2.78398e-05
2.65821e-05
2.53481e-05
2.41392e-05
2.29564e-05
2.18007e-05
2.06731e-05
1.95746e-05
1.8506e-05
1.74682e-05
1.64619e-05
1.54879e-05
1.45468e-05
1.36392e-05
1.27656e-05
1.19265e-05
1.11223e-05
1.03533e-05
9.61977e-06
8.92199e-06
8.26007e-06
7.63408e-06
7.04403e-06
6.48988e-06
5.97149e-06
5.48869e-06
5.04122e-06
4.62876e-06
4.25092e-06
3.90726e-06
3.59725e-06
3.32033e-06
3.07584e-06
2.86309e-06
2.6813e-06
2.52965e-06
2.40725e-06
2.31317e-06
2.24638e-06
2.20586e-06
2.19048e-06
2.19909e-06
2.23048e-06
2.2834e-06
2.35656e-06
2.44862e-06
2.5582e-06
2.68391e-06
2.82429e-06
2.9779e-06
3.14325e-06
3.31882e-06
3.50312e-06
3.69461e-06
3.89177e-06
4.09309e-06
4.29705e-06
4.50216e-06
4.70695e-06
4.90998e-06
5.10985e-06
5.30519e-06
5.49471e-06
5.67714e-06
5.85129e-06
6.01606e-06
6.17039e-06
6.31332e-06
8.61308e-06
8.33878e-06
8.04917e-06
7.74559e-06
7.42948e-06
7.10237e-06
6.76591e-06
6.42183e-06
6.07191e-06
5.71802e-06
5.36209e-06
5.00606e-06
4.65194e-06
4.30177e-06
3.95758e-06
3.62144e-06
3.29541e-06
2.98155e-06
2.68189e-06
2.39847e-06
2.13328e-06
1.88831e-06
1.66547e-06
1.46667e-06
1.29375e-06
1.1485e-06
1.03268e-06
9.47955e-07
8.95956e-07
8.78236e-07
8.96285e-07
9.51521e-07
1.04529e-06
1.17886e-06
1.35342e-06
1.57008e-06
1.82989e-06
2.13379e-06
2.48264e-06
2.87722e-06
3.31824e-06
3.8063e-06
4.34193e-06
4.92555e-06
5.55751e-06
6.23808e-06
6.96741e-06
7.74559e-06
8.5726e-06
9.44835e-06
1.03727e-05
1.13452e-05
1.23657e-05
1.34337e-05
1.45486e-05
1.57098e-05
1.69166e-05
1.81682e-05
1.94638e-05
2.08024e-05
2.2183e-05
2.36044e-05
2.50655e-05
2.65651e-05
2.81018e-05
2.96743e-05
3.1281e-05
3.29204e-05
3.4591e-05
3.62911e-05
3.8019e-05
3.97729e-05
4.1551e-05
4.33515e-05
4.51724e-05
4.70118e-05
4.88676e-05
5.07378e-05
5.26204e-05
5.45133e-05
5.64143e-05
5.83211e-05
6.02318e-05
6.2144e-05
6.40555e-05
6.59641e-05
6.78675e-05
6.97636e-05
7.16499e-05
7.35243e-05
7.53846e-05
7.72284e-05
7.90536e-05
8.08578e-05
8.2639e-05
8.43949e-05
8.61234e-05
8.78223e-05
8.94896e-05
9.11231e-05
9.27208e-05
9.42807e-05
9.58009e-05
9.72795e-05
9.87146e-05
0.000100104
0.000101447
0.000102741
0.000103985
0.000105176
0.000106314
0.000107397
0.000108424
0.000109393
0.000110304
0.000111154
0.000111943
0.00011267
0.000113334
0.000113934
0.000114469
0.000114939
0.000115343
0.00011568
0.000115951
0.000116154
0.00011629
0.000116357
0.000116357
0.00011629
0.000116154
0.000115951
0.00011568
0.000115343
0.000114939
0.000114469
0.000113934
0.000113334
0.00011267
0.000111943
0.000111154
0.000110304
0.000109393
0.000108424
0.000107397
0.000106314
0.000105176
0.000103985
0.000102741
0.000101447
0.000100104
9.87146e-05
9.72795e-05
9.58009e-05
9.42807e-05
9.27208e-05
9.11231e-05
8.94896e-05
8.78223e-05
8.61234e-05
8.43949e-05
8.2639e-05
8.08578e-05
7.90536e-05
7.72284e-05
7.53846e-05
7.35243e-05
7.16499e-05
6.97636e-05
6.78675e-05
6.59641e-05
6.40555e-05
6.2144e-05
6.02318e-05
5.83211e-05
5.64143e-05
5.45133e-05
5.26204e-05
5.07378e-05
4.88676e-05
4.70118e-05
4.51724e-05
4.33515e-05
4.1551e-05
3.97729e-05
3.8019e-05
3.62911e-05
3.4591e-05
3.29204e-05
3.1281e-05
2.96743e-05
2.81018e-05
2.65651e-05
2.50655e-05
2.36044e-05
2.2183e-05
2.08024e-05
1.94638e-05
1.81682e-05
1.69166e-05
1.57098e-05
1.45486e-05
1.34337e-05
1.23657e-05
1.13452e-05
1.03727e-05
9.44835e-06
8.5726e-06
7.74559e-06
6.96741e-06
6.23808e-06
5.55751e-06
4.92555e-06
4.34193e-06
3.8063e-06
3.31824e-06
2.87722e-06
2.48264e-06
2.13379e-06
1.82989e-06
1.57008e-06
1.35342e-06
1.17886e-06
1.04529e-06
9.51521e-07
8.96285e-07
8.78236e-07
8.95956e-07
9.47955e-07
1.03268e-06
1.1485e-06
1.29375e-06
1.46667e-06
1.66547e-06
1.88831e-06
2.13328e-06
2.39847e-06
2.68189e-06
2.98155e-06
3.29541e-06
3.62144e-06
3.95758e-06
4.30177e-06
4.65194e-06
5.00606e-06
5.36209e-06
5.71802e-06
6.07191e-06
6.42183e-06
6.76591e-06
7.10237e-06
7.42948e-06
7.74559e-06
8.04917e-06
8.33878e-06
8.61308e-06
1.16982e-05
1.11884e-05
1.06582e-05
1.01094e-05
9.54416e-06
8.96449e-06
8.37271e-06
7.77118e-06
7.16235e-06
6.54878e-06
5.93307e-06
5.31789e-06
4.70593e-06
4.09993e-06
3.50266e-06
2.91687e-06
2.34533e-06
1.79081e-06
1.25602e-06
7.43689e-07
2.56482e-07
-2.0297e-07
-6.32087e-07
-1.02835e-06
-1.38928e-06
-1.71251e-06
-1.9957e-06
-2.23662e-06
-2.4331e-06
-2.58308e-06
-2.68456e-06
-2.73566e-06
-2.73459e-06
-2.67965e-06
-2.56925e-06
-2.40192e-06
-2.17626e-06
-1.891e-06
-1.545e-06
-1.1372e-06
-6.66676e-07
-1.32599e-07
4.65729e-07
1.12889e-06
1.85736e-06
2.65149e-06
3.51151e-06
4.43753e-06
5.42956e-06
6.48747e-06
7.61102e-06
8.79986e-06
1.00535e-05
1.13714e-05
1.27529e-05
1.4197e-05
1.5703e-05
1.72697e-05
1.8896e-05
2.05807e-05
2.23225e-05
2.41198e-05
2.59711e-05
2.78747e-05
2.98289e-05
3.18319e-05
3.38817e-05
3.59764e-05
3.81137e-05
4.02915e-05
4.25076e-05
4.47595e-05
4.7045e-05
4.93615e-05
5.17065e-05
5.40774e-05
5.64715e-05
5.88861e-05
6.13185e-05
6.37659e-05
6.62254e-05
6.86942e-05
7.11693e-05
7.36479e-05
7.61269e-05
7.86035e-05
8.10746e-05
8.35372e-05
8.59884e-05
8.84251e-05
9.08443e-05
9.32431e-05
9.56185e-05
9.79676e-05
0.000100287
0.000102575
0.000104827
0.000107042
0.000109216
0.000111346
0.000113431
0.000115466
0.00011745
0.000119381
0.000121254
0.000123069
0.000124823
0.000126514
0.000128139
0.000129696
0.000131183
0.000132599
0.000133941
0.000135209
0.000136399
0.000137511
0.000138543
0.000139494
0.000140362
0.000141147
0.000141847
0.000142462
0.000142991
0.000143432
0.000143786
0.000144052
0.000144229
0.000144318
0.000144318
0.000144229
0.000144052
0.000143786
0.000143432
0.000142991
0.000142462
0.000141847
0.000141147
0.000140362
0.000139494
0.000138543
0.000137511
0.000136399
0.000135209
0.000133941
0.000132599
0.000131183
0.000129696
0.000128139
0.000126514
0.000124823
0.000123069
0.000121254
0.000119381
0.00011745
0.000115466
0.000113431
0.000111346
0.000109216
0.000107042
0.000104827
0.000102575
0.000100287
9.79676e-05
9.56185e-05
9.32431e-05
9.08443e-05
8.84251e-05
8.59884e-05
8.35372e-05
8.10746e-05
7.86035e-05
7.61269e-05
7.36479e-05
7.11693e-05
6.86942e-05
6.62254e-05
6.37659e-05
6.13185e-05
5.88861e-05
5.64715e-05
5.40774e-05
5.17065e-05
4.93615e-05
4.7045e-05
4.47595e-05
4.25076e-05
4.02915e-05
3.81137e-05
3.59764e-05
3.38817e-05
3.18319e-05
2.98289e-05
2.78747e-05
2.59711e-05
2.41198e-05
2.23225e-05
2.05807e-05
1.8896e-05
1.72697e-05
1.5703e-05
1.4197e-05
1.27529e-05
1.13714e-05
1.00535e-05
8.79986e-06
7.61102e-06
6.48747e-06
5.42956e-06
4.43753e-06
3.51151e-06
2.65149e-06
1.85736e-06
1.12889e-06
4.65729e-07
-1.32599e-07
-6.66676e-07
-1.1372e-06
-1.545e-06
-1.891e-06
-2.17626e-06
-2.40192e-06
-2.56925e-06
-2.67965e-06
-2.73459e-06
-2.73566e-06
-2.68456e-06
-2.58308e-06
-2.4331e-06
-2.23662e-06
-1.9957e-06
-1.71251e-06
-1.38928e-06
-1.02835e-06
-6.32087e-07
-2.0297e-07
2.56482e-07
7.43689e-07
1.25602e-06
1.79081e-06
2.34533e-06
2.91687e-06
3.50266e-06
4.09993e-06
4.70593e-06
5.31789e-06
5.93307e-06
6.54878e-06
7.16235e-06
7.77118e-06
8.37271e-06
8.96449e-06
9.54416e-06
1.01094e-05
1.06582e-05
1.11884e-05
1.16982e-05
1.58177e-05
1.49352e-05
1.40257e-05
1.30917e-05
1.21361e-05
1.11618e-05
1.0172e-05
9.16987e-06
8.15885e-06
7.14234e-06
6.12388e-06
5.10707e-06
4.09553e-06
3.09294e-06
2.10299e-06
1.12938e-06
1.75793e-07
-7.54102e-07
-1.65666e-06
-2.52829e-06
-3.36544e-06
-4.16462e-06
-4.92241e-06
-5.63547e-06
-6.30053e-06
-6.91443e-06
-7.47409e-06
-7.97654e-06
-8.41893e-06
-8.79851e-06
-9.11265e-06
-9.35885e-06
-9.53474e-06
-9.63806e-06
-9.66671e-06
-9.61871e-06
-9.49224e-06
-9.28561e-06
-8.99728e-06
-8.62584e-06
-8.17006e-06
-7.62884e-06
-7.00125e-06
-6.28648e-06
-5.48391e-06
-4.59307e-06
-3.61362e-06
-2.5454e-06
-1.38839e-06
-1.42751e-07
1.19123e-06
2.6131e-06
4.12226e-06
5.71793e-06
7.39923e-06
9.16508e-06
1.10143e-05
1.29455e-05
1.49572e-05
1.70478e-05
1.92154e-05
2.14583e-05
2.37743e-05
2.61612e-05
2.86169e-05
3.11387e-05
3.37243e-05
3.63709e-05
3.90758e-05
4.18361e-05
4.46488e-05
4.75108e-05
5.0419e-05
5.33701e-05
5.63607e-05
5.93875e-05
6.2447e-05
6.55354e-05
6.86494e-05
7.1785e-05
7.49387e-05
7.81065e-05
8.12848e-05
8.44695e-05
8.76569e-05
9.0843e-05
9.40238e-05
9.71954e-05
0.000100354
0.000103495
0.000106616
0.000109711
0.000112777
0.000115811
0.000118808
0.000121764
0.000124676
0.00012754
0.000130352
0.000133109
0.000135807
0.000138443
0.000141012
0.000143512
0.00014594
0.000148292
0.000150565
0.000152757
0.000154864
0.000156883
0.000158813
0.000160649
0.000162391
0.000164035
0.00016558
0.000167023
0.000168363
0.000169597
0.000170725
0.000171744
0.000172653
0.000173452
0.000174138
0.000174711
0.000175171
0.000175516
0.000175746
0.000175861
0.000175861
0.000175746
0.000175516
0.000175171
0.000174711
0.000174138
0.000173452
0.000172653
0.000171744
0.000170725
0.000169597
0.000168363
0.000167023
0.00016558
0.000164035
0.000162391
0.000160649
0.000158813
0.000156883
0.000154864
0.000152757
0.000150565
0.000148292
0.00014594
0.000143512
0.000141012
0.000138443
0.000135807
0.000133109
0.000130352
0.00012754
0.000124676
0.000121764
0.000118808
0.000115811
0.000112777
0.000109711
0.000106616
0.000103495
0.000100354
9.71954e-05
9.40238e-05
9.0843e-05
8.76569e-05
8.44695e-05
8.12848e-05
7.81065e-05
7.49387e-05
7.1785e-05
6.86494e-05
6.55354e-05
6.2447e-05
5.93875e-05
5.63607e-05
5.33701e-05
5.0419e-05
4.75108e-05
4.46488e-05
4.18361e-05
3.90758e-05
3.63709e-05
3.37243e-05
3.11387e-05
2.86169e-05
2.61612e-05
2.37743e-05
2.14583e-05
1.92154e-05
1.70478e-05
1.49572e-05
1.29455e-05
1.10143e-05
9.16508e-06
7.39923e-06
5.71793e-06
4.12226e-06
2.6131e-06
1.19123e-06
-1.42751e-07
-1.38839e-06
-2.5454e-06
-3.61362e-06
-4.59307e-06
-5.48391e-06
-6.28648e-06
-7.00125e-06
-7.62884e-06
-8.17006e-06
-8.62584e-06
-8.99728e-06
-9.28561e-06
-9.49224e-06
-9.61871e-06
-9.66671e-06
-9.63806e-06
-9.53474e-06
-9.35885e-06
-9.11265e-06
-8.79851e-06
-8.41893e-06
-7.97654e-06
-7.47409e-06
-6.91443e-06
-6.30053e-06
-5.63547e-06
-4.92241e-06
-4.16462e-06
-3.36544e-06
-2.52829e-06
-1.65666e-06
-7.54102e-07
1.75793e-07
1.12938e-06
2.10299e-06
3.09294e-06
4.09553e-06
5.10707e-06
6.12388e-06
7.14234e-06
8.15885e-06
9.16987e-06
1.0172e-05
1.11618e-05
1.21361e-05
1.30917e-05
1.40257e-05
1.49352e-05
1.58177e-05
2.12926e-05
1.98577e-05
1.8387e-05
1.68842e-05
1.53533e-05
1.37983e-05
1.22235e-05
1.06334e-05
9.03247e-06
7.4254e-06
5.81695e-06
4.21194e-06
2.61523e-06
1.03173e-06
-5.3365e-07
-2.07599e-06
-3.5904e-06
-5.072e-06
-6.51599e-06
-7.9176e-06
-9.27214e-06
-1.0575e-05
-1.18217e-05
-1.30077e-05
-1.41289e-05
-1.51809e-05
-1.61598e-05
-1.70617e-05
-1.78827e-05
-1.86193e-05
-1.9268e-05
-1.98254e-05
-2.02885e-05
-2.06543e-05
-2.09199e-05
-2.10829e-05
-2.11407e-05
-2.10911e-05
-2.09321e-05
-2.06619e-05
-2.02787e-05
-1.97812e-05
-1.9168e-05
-1.84381e-05
-1.75907e-05
-1.66251e-05
-1.55409e-05
-1.43378e-05
-1.30157e-05
-1.1575e-05
-1.00158e-05
-8.33888e-06
-6.54491e-06
-4.6349e-06
-2.61002e-06
-4.71642e-07
1.77866e-06
4.13914e-06
6.60784e-06
9.18262e-06
1.18612e-05
1.4641e-05
1.75194e-05
2.04936e-05
2.35606e-05
2.67171e-05
2.99598e-05
3.32854e-05
3.669e-05
4.017e-05
4.37215e-05
4.73404e-05
5.10225e-05
5.47636e-05
5.85592e-05
6.2405e-05
6.62962e-05
7.02282e-05
7.41962e-05
7.81954e-05
8.22209e-05
8.62676e-05
9.03306e-05
9.44047e-05
9.84849e-05
0.000102566
0.000106643
0.00011071
0.000114762
0.000118795
0.000122803
0.00012678
0.000130722
0.000134623
0.000138478
0.000142283
0.000146032
0.000149721
0.000153344
0.000156897
0.000160375
0.000163773
0.000167087
0.000170312
0.000173445
0.000176481
0.000179415
0.000182245
0.000184966
0.000187574
0.000190067
0.00019244
0.000194691
0.000196816
0.000198812
0.000200678
0.00020241
0.000204006
0.000205464
0.000206782
0.000207958
0.00020899
0.000209878
0.000210619
0.000211214
0.00021166
0.000211958
0.000212107
0.000212107
0.000211958
0.00021166
0.000211214
0.000210619
0.000209878
0.00020899
0.000207958
0.000206782
0.000205464
0.000204006
0.00020241
0.000200678
0.000198812
0.000196816
0.000194691
0.00019244
0.000190067
0.000187574
0.000184966
0.000182245
0.000179415
0.000176481
0.000173445
0.000170312
0.000167087
0.000163773
0.000160375
0.000156897
0.000153344
0.000149721
0.000146032
0.000142283
0.000138478
0.000134623
0.000130722
0.00012678
0.000122803
0.000118795
0.000114762
0.00011071
0.000106643
0.000102566
9.84849e-05
9.44047e-05
9.03306e-05
8.62676e-05
8.22209e-05
7.81954e-05
7.41962e-05
7.02282e-05
6.62962e-05
6.2405e-05
5.85592e-05
5.47636e-05
5.10225e-05
4.73404e-05
4.37215e-05
4.017e-05
3.669e-05
3.32854e-05
2.99598e-05
2.67171e-05
2.35606e-05
2.04936e-05
1.75194e-05
1.4641e-05
1.18612e-05
9.18262e-06
6.60784e-06
4.13914e-06
1.77866e-06
-4.71642e-07
-2.61002e-06
-4.6349e-06
-6.54491e-06
-8.33888e-06
-1.00158e-05
-1.1575e-05
-1.30157e-05
-1.43378e-05
-1.55409e-05
-1.66251e-05
-1.75907e-05
-1.84381e-05
-1.9168e-05
-1.97812e-05
-2.02787e-05
-2.06619e-05
-2.09321e-05
-2.10911e-05
-2.11407e-05
-2.10829e-05
-2.09199e-05
-2.06543e-05
-2.02885e-05
-1.98254e-05
-1.9268e-05
-1.86193e-05
-1.78827e-05
-1.70617e-05
-1.61598e-05
-1.51809e-05
-1.41289e-05
-1.30077e-05
-1.18217e-05
-1.0575e-05
-9.27214e-06
-7.9176e-06
-6.51599e-06
-5.072e-06
-3.5904e-06
-2.07599e-06
-5.3365e-07
1.03173e-06
2.61523e-06
4.21194e-06
5.81695e-06
7.4254e-06
9.03247e-06
1.06334e-05
1.22235e-05
1.37983e-05
1.53533e-05
1.68842e-05
1.8387e-05
1.98577e-05
2.12926e-05
2.85348e-05
2.6313e-05
2.40441e-05
2.17333e-05
1.93859e-05
1.70075e-05
1.46041e-05
1.21816e-05
9.74614e-06
7.30401e-06
4.86157e-06
2.42526e-06
1.56682e-09
-2.40299e-06
-4.78189e-06
-7.12863e-06
-9.43672e-06
-1.16997e-05
-1.39113e-05
-1.60652e-05
-1.81553e-05
-2.01753e-05
-2.21195e-05
-2.3982e-05
-2.57571e-05
-2.74394e-05
-2.90235e-05
-3.05043e-05
-3.18768e-05
-3.31363e-05
-3.42781e-05
-3.5298e-05
-3.61919e-05
-3.69557e-05
-3.7586e-05
-3.80791e-05
-3.84319e-05
-3.86415e-05
-3.87052e-05
-3.86205e-05
-3.83853e-05
-3.79975e-05
-3.74555e-05
-3.6758e-05
-3.59037e-05
-3.48919e-05
-3.37218e-05
-3.23932e-05
-3.09059e-05
-2.92603e-05
-2.74566e-05
-2.54957e-05
-2.33786e-05
-2.11065e-05
-1.86809e-05
-1.61036e-05
-1.33767e-05
-1.05024e-05
-7.48325e-06
-4.32203e-06
-1.02176e-06
2.4143e-06
5.98267e-06
9.67964e-06
1.35013e-05
1.74434e-05
2.15018e-05
2.56717e-05
2.99486e-05
3.43273e-05
3.88029e-05
4.33701e-05
4.80233e-05
5.2757e-05
5.75654e-05
6.24427e-05
6.73828e-05
7.23796e-05
7.74268e-05
8.25181e-05
8.76471e-05
9.28071e-05
9.79916e-05
0.000103194
0.000108407
0.000113625
0.000118841
0.000124047
0.000129237
0.000134404
0.000139542
0.000144643
0.0001497
0.000154708
0.000159659
0.000164546
0.000169364
0.000174106
0.000178764
0.000183334
0.000187808
0.000192182
0.000196448
0.000200601
0.000204635
0.000208546
0.000212327
0.000215973
0.00021948
0.000222843
0.000226057
0.000229117
0.000232019
0.000234761
0.000237336
0.000239743
0.000241978
0.000244038
0.000245919
0.00024762
0.000249138
0.00025047
0.000251616
0.000252573
0.000253341
0.000253917
0.000254302
0.000254494
0.000254494
0.000254302
0.000253917
0.000253341
0.000252573
0.000251616
0.00025047
0.000249138
0.00024762
0.000245919
0.000244038
0.000241978
0.000239743
0.000237336
0.000234761
0.000232019
0.000229117
0.000226057
0.000222843
0.00021948
0.000215973
0.000212327
0.000208546
0.000204635
0.000200601
0.000196448
0.000192182
0.000187808
0.000183334
0.000178764
0.000174106
0.000169364